LAMMPS (29 Sep 2021 - Update 2)
  using 4 OpenMP thread(s) per MPI task
units metal
atom_style atomic # use charge if some atoms are charged
dimension 3

# set newton on for pair_allegro (off for pair_nequip)
newton off
boundary p p p
read_data LBS.lmp
Reading data file ...
  orthogonal box = (0.0000000 0.0000000 0.0000000) to (8.1500000 10.070000 12.318000)
  1 by 1 by 1 MPI processor grid
  reading atoms ...
  56 atoms
  read_data CPU = 0.003 seconds

# for running a larger system, simply replicate the system in space
# replicate 2 2 2

# nequip pair style
pair_style	nequip
pair_coeff	* * ../../training/iteration_1_2-deployed.pth Li B S
mass 1 6.941
mass 2 10.811
mass 3 32.065

# initialise velocities
velocity all create 1000 12345 loop all

neighbor 1.0 bin
neigh_modify delay 5 every 1

timestep 0.001
thermo 100

group Lithium type 1
24 atoms in group Lithium
group Boron type 2
8 atoms in group Boron
group Sulfur type 3
24 atoms in group Sulfur

# nose-hoover thermostat
fix 1 all nvt temp 1000 1000 0.05
compute 1 Lithium msd com yes
compute 2 Boron msd com yes
compute 3 Sulfur msd com yes

# outputting important quantities
thermo_style custom step temp pe etotal press c_1[*] c_2[*] c_3[*]
# writing positions and velocities in files
dump 1 all custom 1000 dump_*.lmc id mass type element x y z fx fy fz
dump_modify 1 element Li B S sort id
run 5000000
Neighbor list info ...
  update every 1 steps, delay 5 steps, check yes
  max neighbors/atom: 2000, page size: 100000
  master list distance cutoff = 7
  ghost atom cutoff = 7
  binsize = 3.5, bins = 3 3 4
  1 neighbor lists, perpetual/occasional/extra = 1 0 0
  (1) pair nequip, perpetual
      attributes: full, newton off
      pair build: full/bin/atomonly
      stencil: full/bin/3d
      bin: standard
Per MPI rank memory allocation (min/avg/max) = 8.104 | 8.104 | 8.104 Mbytes
Step Temp PotEng TotEng Press c_1[1] c_1[2] c_1[3] c_1[4] c_2[1] c_2[2] c_2[3] c_2[4] c_3[1] c_3[2] c_3[3] c_3[4] 
       0         1000    -13282.59   -13275.481    7511.3699 3.1554436e-30 3.1554436e-30 3.1554436e-30 9.4663309e-30 7.8886091e-31            0 7.8886091e-31 1.5777218e-30 7.8886091e-31            0 3.1554436e-30 3.9443045e-30 
     100     580.1181   -13276.999   -13272.875    4357.4816   0.11980193  0.098527201    0.1052957   0.32362483  0.051163778  0.029485085  0.034545275   0.11519414  0.094359765  0.044978384  0.030882546   0.17022069 
     200    1158.9193   -13276.379    -13268.14    8705.0716   0.12811606  0.079559408   0.13157232   0.33924779  0.099887813 0.0037086501  0.055968848   0.15956531   0.11717515  0.017375217  0.047773391   0.18232376 
     300    1061.2688   -13273.083   -13265.538    7971.5822   0.23155358   0.36670753   0.18734357   0.78560468  0.052785742   0.11287825  0.058081726   0.22374572  0.081069971   0.10016796  0.057693459   0.23893139 
     400    942.01473   -13273.444   -13266.747    7075.8211   0.31588392   0.71457333   0.32814737    1.3586046  0.023103619  0.026256706  0.068712045   0.11807237   0.07141632  0.055023315  0.085633639   0.21207327 
     500    1018.9611   -13274.146   -13266.901    7653.7941   0.55527528   0.81821634   0.64349454    2.0169862  0.074722495  0.028152055  0.033162809   0.13603736    0.1634132  0.058582854  0.064099787   0.28609584 
     600    1059.0566   -13272.316   -13264.787    7954.9662    0.4003889   0.62539276   0.55225244    1.5780341  0.067285846  0.067200034  0.064779816    0.1992657   0.27721281   0.12695424   0.10693596   0.51110301 
     700    1040.0109    -13271.01   -13263.616    7811.9064   0.56964381   0.67673535   0.60803856    1.8544177   0.16227817  0.078122807  0.075839189   0.31624017   0.50448175   0.17019874   0.11778853   0.79246902 
     800    899.81537    -13272.74   -13266.343    6758.8461   0.91958205   0.93126074    1.0184441    2.8692869    0.1168957  0.050596215  0.086551617   0.25404354   0.68047802   0.11677166   0.12911325   0.92636293 
     900    930.11603   -13272.855   -13266.243    6986.4455     1.286259    1.0541334    1.1885044    3.5288968  0.083831957  0.060214801   0.04387439   0.18792115   0.57403368   0.10493999  0.076664275   0.75563794 
    1000    1061.6945   -13272.086   -13264.538    7974.7804     1.480782    1.2949419   0.82985634    3.6055803  0.066295449   0.12117033  0.029274013   0.21673979   0.34969464   0.14514161   0.06658156   0.56141782 
    1100    982.69963   -13272.365   -13265.379    7381.4204    2.2271891    1.3987305   0.64661764    4.2725373  0.015780839  0.061594145  0.013664303  0.091039286    0.3146492   0.15155341  0.076723278   0.54292589 
    1200    1099.3517   -13271.539   -13263.723     8257.637    1.6351646    1.0225437    1.0718033    3.7295116   0.10837403  0.050005707  0.067480418   0.22586015   0.25393222   0.14036928  0.087383551   0.48168504 
    1300    938.63597   -13273.438   -13266.765    7050.4419    1.2036228    1.0803362   0.93536156    3.2193205  0.030804007  0.048691731  0.053181472   0.13267721   0.25056007   0.08159194  0.088224223   0.42037623 
    1400    935.47691    -13273.74    -13267.09    7026.7131    1.2880066    1.0246464     1.073692     3.386345  0.079250649  0.029828676  0.014282656   0.12336198   0.37656039  0.045513129  0.035010679    0.4570842 
    1500    1060.2902   -13272.468    -13264.93    7964.2318    1.5960787     1.807004    1.1162538    4.5193365   0.11572714 0.0089821389  0.042702249   0.16741153   0.42914349  0.056291702    0.1053288   0.59076399 
    1600    1047.9111   -13272.318   -13264.868    7871.2479     1.264107      1.70016    1.1153065    4.0795734   0.13340729  0.024170138  0.069295901   0.22687333   0.45929168  0.057064555  0.081900434   0.59825667 
    1700    1008.6796   -13274.091    -13266.92    7576.5656    1.4226539    1.1625752    1.3083081    3.8935372    0.1087964  0.057767584  0.043184604   0.20974859   0.35681515  0.082360556  0.070270967   0.50944667 
    1800     966.7579   -13272.653    -13265.78    7261.6762     1.463566    1.6483571    1.8253135    4.9372366  0.048728703  0.082612256  0.036784897   0.16812586   0.25396442   0.10507738  0.055490417   0.41453222 
    1900    1098.4971   -13272.089   -13264.279     8251.218    1.3263675    1.4941557    2.3895248    5.2100479  0.044510962  0.060732569  0.046021308   0.15126484   0.12148911    0.0779689  0.071181473   0.27063948 
    2000    1032.1079   -13274.064   -13266.727    7752.5442    1.8259077    1.6928466    2.7088287     6.227583  0.025695528  0.018348268  0.078413497   0.12245729  0.090973728  0.030901509  0.091283626   0.21315886 
    2100    1054.7475   -13275.133   -13267.634    7922.5984     1.655903    1.7420219    2.1891789    5.5871038  0.015929255  0.024934818  0.037760279  0.078624352   0.15457471   0.03969973  0.052445995   0.24672044 
    2200     984.1333   -13273.366    -13266.37    7392.1892    1.7604143    1.5458158    2.4334707    5.7397008    0.0495462  0.043430487  0.021364098   0.11434078   0.17888049  0.090547298  0.054772495   0.32420028 
    2300    1058.5622   -13273.452   -13265.927    7951.2525    1.6035062    1.7167409    2.6132659    5.9335131  0.021584175  0.014765998  0.023689718  0.060039892   0.22066279  0.066514867  0.075524442    0.3627021 
    2400    1038.1901   -13273.844   -13266.463    7798.2302    1.6060866    1.6379589    3.0536617    6.2977073   0.04076253  0.033568906  0.074422297   0.14875373   0.18940251  0.088683473  0.091909004   0.36999499 
    2500     946.6024   -13273.439    -13266.71    7110.2807    1.7198816    2.0429256    3.4873466    7.2501538  0.038879075  0.042227154  0.069953652   0.15105988   0.26514842   0.07948326  0.086972546   0.43160423 
    2600    1122.7805   -13274.459   -13266.477    8433.6199     1.824012     2.228914    3.5401707    7.5930966  0.020375947  0.046666416  0.048904851   0.11594721   0.17459262  0.094880612  0.091083098   0.36055633 
    2700    926.18296   -13271.949   -13265.365    6956.9028    1.9062561    2.0748229    4.2326024    8.2136814  0.072807921  0.010607152  0.060526436   0.14394151     0.233729  0.028883381   0.10781144   0.37042382 
    2800    831.99639   -13273.831   -13267.916    6249.4326    2.0246779    2.4051229    3.5311576    7.9609584  0.036529429  0.014264385   0.14918569    0.1999795   0.29082194  0.044085763   0.15407407   0.48898177 
    2900    908.51623   -13272.868   -13266.409    6824.2014    2.5109695    3.0674088    3.7085686     9.286947  0.057311216  0.035723532  0.060425704   0.15346045   0.34798495  0.087324725   0.13667778   0.57198746 
    3000    976.03149   -13272.116   -13265.177    7331.3335    2.7204482    4.1095143    4.5978893    11.427852  0.070127498  0.056323672  0.029005082   0.15545625   0.37032883   0.16418258  0.086312029   0.62082344 
    3100    1281.1864   -13272.429    -13263.32    9623.4653    2.1205959     3.679059    4.8847259    10.684381  0.094861279  0.028112599   0.10111113   0.22408501   0.27083774   0.10136903  0.091557818   0.46376459 
    3200    1002.9283   -13273.203   -13266.073    7533.3653    1.6371164    3.0686513    3.9146616    8.6204292  0.070102158  0.053050736  0.058395771   0.18154866   0.20853437  0.091612631   0.06429574   0.36444274 
    3300    833.77773   -13273.182   -13267.254    6262.8129    1.7437256    3.5947444    4.6561818    9.9946518   0.10637027  0.036049938  0.043705277   0.18612548    0.3201736  0.085352636  0.095082571    0.5006088 
    3400    1123.7631   -13272.549    -13264.56    8440.9999     1.610412     3.378001    4.2763697    9.2647827  0.091230532  0.053624598  0.077102118   0.22195725   0.25342837   0.12160348  0.098402721   0.47343458 
    3500    872.45238   -13272.023   -13265.821    6553.3125     1.603924     2.862704    4.7299911    9.1966191  0.096499648  0.094310246  0.085931889   0.27674178   0.34005844   0.12844104   0.13013615   0.59863563 
    3600    1124.2093   -13272.072    -13264.08    8444.3522     2.060065    3.7739828    5.1502266    10.984274  0.052883277  0.034344291   0.12675017   0.21397774   0.31036053  0.065885911    0.1527843   0.52903074 
    3700    1039.5561   -13271.416   -13264.025    7808.4906    2.6021574    4.3633041    4.6089768    11.574438  0.097515513  0.073914481  0.058776899   0.23020689   0.29280058   0.15064939   0.13775707   0.58120704 
    3800    891.27068   -13272.719   -13266.382    6694.6637    2.7481112    4.1892714    4.3705107    11.307893   0.07775506  0.062244688  0.089472114   0.22947186   0.33099674    0.1475003   0.12047493   0.59897197 
    3900    964.81724   -13272.081   -13265.222    7247.0992    2.2554386    4.2394172     5.452887    11.947743   0.16027854   0.10646245  0.051119772   0.31786076    0.4220869   0.15178229   0.10255264   0.67642183 
    4000    1097.4764    -13271.52   -13263.717    8243.5513    3.0011309    4.0817938     6.202222    13.285147   0.15357012   0.10821102  0.063404139   0.32518528   0.54640541   0.13813595   0.11095054    0.7954919 
    4100    919.76424    -13273.12   -13266.581    6908.6894    3.3828147    3.8662457    5.7616774    13.010738   0.19093224  0.015926882  0.061129276    0.2679884   0.57513935  0.077221226  0.060654374   0.71301495 
    4200    1079.5818   -13272.513   -13264.838    8109.1383    2.9805751     3.852788    5.9537262    12.787089   0.11223218   0.10161219  0.016134106   0.22997848   0.57706261   0.13864675  0.070311105   0.78602046 
    4300    1003.9423   -13270.839   -13263.702    7540.9822    3.4664463    4.0161952    6.0193768    13.502018   0.12355909  0.094920558  0.078486056    0.2969657   0.50019814   0.18107079  0.079963143   0.76123207 
    4400    1109.7217   -13272.896   -13265.007    8335.5301    4.2630251    4.1246127     5.541684    13.929322   0.19990011  0.079098701  0.035304922   0.31430374    0.6916877  0.083880808  0.059826992    0.8353955 
    4500    723.44393    -13272.02   -13266.876     5434.055    4.1720406    4.4996812    4.9617912    13.633513   0.17264298  0.033976032  0.017159924   0.22377893   0.69313424  0.084485366  0.079691382   0.85731099 
    4600    1172.9066   -13272.962   -13264.623    8810.1354    5.0974047    4.6567144     4.772229    14.526348  0.099200764   0.10009887  0.050112606   0.24941224   0.46756406   0.11628669  0.066265338   0.65011609 
    4700    899.22554   -13274.144   -13267.751    6754.4156    5.6381223     3.752172    4.9289728    14.319267  0.070111032  0.023444072  0.066447789   0.16000289   0.52463212  0.049478793  0.083110369   0.65722129 
    4800     985.1919   -13273.999   -13266.995    7400.1408    5.2247822    3.9284002    4.8164412    13.969624   0.07113249  0.023372917  0.046789695    0.1412951   0.72704235  0.052311898  0.050496858   0.82985111 
    4900    874.50822   -13271.112   -13264.895    6568.7547    5.5029239     4.731811    4.7642134    14.998948   0.21260695   0.10634034  0.013062886   0.33201017   0.99949157   0.12643118  0.056551253     1.182474 
    5000    895.55197   -13272.015   -13265.648    6726.8221    5.5057832    4.1537695    5.2865023    14.946055   0.30184281  0.044529477  0.080385279   0.42675757    1.0966401  0.054586338  0.097385169    1.2486116 
    5100    1007.9709   -13274.035   -13266.869    7571.2425    5.1202825    4.3209605    5.1100079    14.551251   0.25853619  0.054267247   0.11668778   0.42949121    1.0757498  0.065454103   0.17453691    1.3157408 
    5200    1007.0624   -13272.562   -13265.403     7564.418    5.3080829     4.860251    4.3240884    14.492422   0.16853813  0.090214282  0.087979221   0.34673163   0.94512735   0.14535207   0.13893679    1.2294162 
    5300    1063.2027   -13271.881   -13264.322     7986.109    5.1060997    5.0106756    3.9237489    14.040524   0.19544087  0.084972664   0.10138516    0.3817987   0.79638592  0.074693158   0.13909937    1.0101785 
    5400    946.78868   -13273.865   -13267.134    7111.6799    4.3632582    5.2580044    4.9830288    14.604291   0.10682246   0.02361355  0.037703602   0.16813961   0.55711692  0.057917884  0.068145884   0.68318069 
    5500    1017.9866   -13273.812   -13266.575    7646.4741    4.3546597    5.6164221    4.9479404    14.919022  0.052832834   0.02952477  0.022713707   0.10507131   0.32404186  0.080005279  0.068456516   0.47250365 
    5600    1080.1073   -13273.227   -13265.548    8113.0858    3.7426205    5.8926517    5.1535653    14.788837  0.072582862  0.049663529  0.074252573   0.19649896   0.34080596   0.11026554   0.14314815   0.59421965 
    5700    832.97782   -13274.276   -13268.354    6256.8045    4.1514811    6.9072684    5.5228533    16.581603  0.064570398   0.01564725   0.14260851   0.22282616   0.49142629   0.02816011   0.11640097   0.63598737 
    5800    1045.3159   -13274.384   -13266.952     7851.754    4.1361178    6.2498097     5.336551    15.722478  0.099749309  0.042176719  0.023994318   0.16592035   0.59284803  0.072726148  0.037483096   0.70305728 
    5900    1051.0407   -13273.153   -13265.681    7894.7555    4.0727584    4.9576733      5.53353    14.563962  0.026585747   0.10603192  0.084846339   0.21746401   0.61696285   0.15649223   0.10060863   0.87406372 
    6000    972.21242   -13271.028   -13264.117    7302.6471    3.8025289    4.3828844    6.1434492    14.328862  0.073058191   0.11084165   0.22431664   0.40821649   0.53010157   0.12043044   0.23600558   0.88653759 
    6100    755.61735    -13271.52   -13266.148    5675.7214    3.8496962    4.5740872    5.9653642    14.389148   0.19394896   0.12339979  0.044136102   0.36148485   0.63123864   0.17543947   0.11464312   0.92132122 
    6200    1087.9342   -13272.739   -13265.005    8171.8763    3.8508558    4.5035624    4.6050357    12.959454   0.11012636  0.034015277  0.046941061    0.1910827   0.59455682  0.080796157  0.059620974   0.73497395 
    6300    1083.8697   -13272.818   -13265.113    8141.3465    4.5009477    4.8515337    6.2968993    15.649381   0.06276608  0.075304172    0.1582386   0.29630886   0.50689355   0.15923068   0.14423611   0.81036034 
    6400    836.01899   -13272.705   -13266.762    6279.6478    5.1306854    4.0558269    7.0004246    16.186937   0.05266797  0.032977327  0.074813584   0.16045888   0.64315209  0.095161654  0.091194886   0.82950863 
    6500    1002.6559   -13271.666   -13264.538     7531.319     4.783567    4.4532603    6.7684833    16.005311  0.095523672  0.031700587  0.036398452   0.16362271   0.61167763  0.096279364  0.058908524   0.76686552 
    6600    1049.9922   -13271.968   -13264.503      7886.88    5.1672838    5.2120881    6.4565682     16.83594   0.10798014   0.05840181   0.01531716   0.18169911   0.53881193  0.098244807  0.052088041   0.68914477 
    6700    926.01355   -13272.894    -13266.31    6955.6303     5.820099    4.8662019    7.0336304    17.719931   0.16338533  0.040252454  0.044323745   0.24796153   0.57967011  0.072355417  0.079712259   0.73173779 
    6800    887.34306   -13273.721   -13267.412    6665.1619    5.6017842    4.8733033    6.8753387    17.350426   0.14101475  0.049680378  0.067004495   0.25769963   0.83376041  0.083906667  0.083885416    1.0015525 
    6900    1153.0649   -13273.627   -13265.429    8661.0967    5.7301354    5.1864953    6.9003668    17.816997   0.15066801   0.03104877  0.046458253   0.22817503   0.84829797  0.038456617  0.059259907   0.94601449 
    7000    892.67101   -13273.175   -13266.829    6705.1821    5.8613372    4.5942825    6.3644609    16.820081   0.20560843  0.035557933  0.026292734    0.2674591   0.96185634     0.057152  0.043544495    1.0625528 
    7100     696.4363   -13272.853   -13267.901    5231.1906    5.7541074    4.3657182    6.9217491    17.041575   0.16501788  0.024176671  0.038871878   0.22806642    0.8505328  0.060357979  0.057550567   0.96844134 
    7200     1024.767   -13272.541   -13265.256    7697.4037    5.2578712    4.3300214    6.6298984    16.217791   0.04203594  0.078365058  0.066827447   0.18722845   0.77550417  0.064338887  0.093953824   0.93379688 
    7300    1070.4466   -13272.471   -13264.861    8040.5201    5.3580427    5.1324665    6.4778791    16.968388  0.099571449  0.011685843  0.074857104    0.1861144   0.78471727  0.054018648   0.10605607   0.94479199 
    7400    895.93802   -13272.735   -13266.366    6729.7219    5.5486061      6.20838    6.6155205    18.372507  0.048517377  0.041725463  0.054947882   0.14519072   0.82000895   0.11175874  0.075380499    1.0071482 
    7500    1200.4271   -13273.273   -13264.739    9016.8518     5.645214    5.8608756    6.7864108      18.2925  0.050133851  0.058072917  0.037930377   0.14613715   0.67970918  0.059147355  0.052013804   0.79087034 
    7600    871.31253   -13271.979   -13265.784    6544.7506    6.0973664     5.596147    7.3963121    19.089825  0.025708465  0.026163451  0.043806936  0.095678852   0.54727757   0.10467996  0.098693959   0.75065149 
    7700    855.95923   -13272.269   -13266.183    6429.4264    6.9670005    6.9386074    8.1934732    22.099081  0.068470885  0.076570547  0.056573245   0.20161468   0.47961579   0.12653885  0.068246386   0.67440102 
    7800    1146.9677   -13272.141   -13263.986    8615.2988    6.4646005    6.8779667    8.6303798    21.972947   0.03453038  0.050280588  0.057129549   0.14194052   0.46448035   0.10417242   0.05371601   0.62236878 
    7900    871.75327   -13272.868   -13266.671    6548.0612    6.6127016     7.154588     8.615477    22.382767  0.033184455  0.065044604  0.037629042    0.1358581   0.55007161   0.12086409  0.059316422   0.73025212 
    8000    1011.7707   -13272.896   -13265.703    7599.7838    6.4768371    7.9949212    10.246308    24.718066  0.052189304  0.072365043  0.027523974   0.15207832   0.54765012  0.095489065  0.060414105   0.70355329 
    8100    1014.4826   -13272.874   -13265.662    7620.1542    6.2231498       8.7235    10.217231    25.163881  0.018760495  0.065417723  0.040510828   0.12468905   0.76259084   0.10557213  0.063589962   0.93175293 
    8200    1220.9839   -13272.521    -13263.84    9171.2616    7.2033407    8.3167146    10.124935    25.644991  0.063174869  0.082283774  0.039565769   0.18502441   0.94817222   0.12962755   0.07109171    1.1488915 
    8300    1019.0273   -13273.197   -13265.953    7654.2907     7.178441     8.517242    9.4308707    25.126554  0.078757482 0.0095245914   0.10400533    0.1922874   0.96625389  0.084735746   0.16812152    1.2191112 
    8400    1032.0519   -13272.203   -13264.866    7752.1236    7.3828139    7.9875966    9.6210619    24.991472   0.16626944  0.079744762   0.09590302   0.34191722   0.92797175   0.16310097   0.17434705    1.2654198 
    8500    1207.0841   -13272.274   -13263.693    9066.8551     7.322651    7.6422586     10.09448     25.05939   0.28020807  0.052757365  0.062837251   0.39580269    1.2331694   0.14109991   0.12958308    1.5038524 
    8600    1090.4142   -13273.069   -13265.317    8190.5047    7.1102411    7.8377112     10.54615    25.494102   0.20848529   0.07065674  0.026411054   0.30555309    1.0462299   0.11080566   0.06566042     1.222696 
    8700    902.78935   -13273.258    -13266.84    6781.1847    7.3113142    7.9329217    11.159725    26.403961   0.18935642  0.044816834   0.01907174     0.253245   0.65080658  0.087849874  0.079359505   0.81801596 
    8800    1176.3476   -13273.743    -13265.38    8835.9816    6.9740775    8.4689361    11.770164    27.213178   0.17925293  0.048013147  0.025910981   0.25317706   0.65431409  0.060458111  0.044504232   0.75927643 
    8900    1018.3659   -13272.979   -13265.739    7649.3232    7.4542679    10.010772    12.536406    30.001446   0.22441703  0.039018452  0.031573743   0.29500923   0.84763411  0.080187292   0.10207701    1.0298984 
    9000    802.31618   -13272.923   -13267.219    6026.4936    8.2356628    10.444883    12.763874     31.44442   0.20629956  0.053596302  0.063865214   0.32376108   0.69275697   0.12988017   0.11366691   0.93630404 
    9100    981.77608   -13271.536   -13264.556    7374.4832    7.6879553    9.4983962    12.819523    30.005875   0.19065633  0.066733492  0.063670735   0.32106056   0.43934299    0.1537696  0.099828414     0.692941 
    9200    934.88042   -13272.646   -13265.999    7022.2326    8.4533839    11.062157    13.743278    33.258818   0.11400095  0.059295904  0.020642174   0.19393902   0.50450213   0.10640637   0.05735491   0.66826341 
    9300    1133.2481   -13272.316    -13264.26     8512.246    9.4584856    12.185601    13.910969    35.555056   0.12306308   0.03863437  0.050204466   0.21190191   0.43746596  0.075283392   0.11632319   0.62907255 
    9400    967.93149   -13271.161    -13264.28    7270.4914    11.293014    11.350674     13.33679    35.980477   0.22182913  0.053196045  0.057015414   0.33204059   0.44030663   0.14344498   0.11494784   0.69869945 
    9500    1015.4365   -13272.878   -13265.659    7627.3193    11.287626    10.504932    12.873828    34.666386   0.13552402  0.025693164  0.077815068   0.23903226   0.57988581  0.070712296  0.088352835   0.73895094 
    9600    990.84087   -13274.104   -13267.059    7442.5723    10.128065    11.047297    13.500483    34.675845   0.05113793  0.028637793  0.042315103   0.12209083   0.58919307  0.043165576  0.053363724   0.68572237 
    9700     740.8989   -13273.533   -13268.266    5565.1657    9.8264816    10.738468     14.11163     34.67658  0.066542927  0.059915316  0.036861026   0.16331927   0.65051545  0.070130191  0.051825487   0.77247113 
    9800    1005.8029   -13273.028   -13265.878    7554.9574    9.6774868    11.431494    13.924196    35.033177  0.013597185  0.066429943  0.044183297   0.12421043   0.69672533  0.073639456  0.074383161   0.84474795 
    9900    999.67015   -13271.703   -13264.596    7508.8923    11.054555    14.662641    13.788384    39.505579  0.054550788  0.019357976   0.12266992   0.19657868   0.76878108  0.093317926   0.16127029    1.0233693 
   10000    952.50669   -13271.913   -13265.141      7154.63    11.403704    14.752126    14.499838    40.655668  0.047563345  0.056076806     0.115375   0.21901515   0.97579031   0.11783301   0.16264948    1.2562728 
   10100    867.37549    -13272.12   -13265.954    6515.1781    11.558206    15.270201    13.811556    40.639963  0.046926666   0.20072967  0.058500827   0.30615716   0.83037244   0.17619281  0.089344782      1.09591 
   10200    1045.1794   -13273.384   -13265.953    7850.7288    11.089072    15.184994    14.338993     40.61306  0.035358483   0.10711035  0.030871767    0.1733406   0.77010287   0.13501361  0.047078303   0.95219479 
   10300    1081.5934   -13272.555   -13264.865    8124.2477    10.454999    15.429386    15.717914    41.602299   0.01553293  0.028646354 0.0078372032  0.052016487   0.82595261   0.10305528  0.047457407    0.9764653 
   10400    825.86002   -13272.303   -13266.431    6203.3401    8.9463889    16.835007    16.931248    42.712644  0.045725188    0.1269194  0.047356567   0.22000115   0.76775669   0.15802793  0.092642859    1.0184275 
   10500    1060.6378   -13272.647   -13265.107    7966.8425    9.2438656    16.999807    17.345667     43.58934  0.013539065   0.06963816  0.065920669   0.14909789   0.82692849  0.084861425  0.068446456   0.98023637 
   10600    837.85276   -13273.959   -13268.002     6293.422    9.8240855     17.48144    18.544152    45.849677  0.043988415  0.016238194  0.024174738  0.084401347   0.62267393  0.050852931  0.033898417   0.70742528 
   10700    986.49463   -13273.713     -13266.7     7409.926    9.8506009    17.655516    18.862649    46.368766  0.059827465  0.030250978   0.03955234   0.12963078   0.55262621  0.070860385  0.071186304    0.6946729 
   10800    974.14907   -13271.939   -13265.014     7317.194    11.111001    18.187948    19.458686    48.757635  0.088714433  0.019155613  0.059890641   0.16776069   0.53639737  0.080055289   0.14342184    0.7598745 
   10900    1122.5723   -13272.051    -13264.07    8432.0554    10.192549    18.086136    18.235976    46.514661    0.1743643  0.037694862  0.046988722   0.25904789   0.58278489  0.071746255   0.12606353   0.78059468 
   11000    1178.8621   -13273.102   -13264.721    8854.8693    10.124469     20.30546    20.555052     50.98498   0.13742834  0.014986584   0.04332754   0.19574246   0.58402858  0.092314884   0.16817779   0.84452125 
   11100     1007.243   -13273.022   -13265.862    7565.7745    9.7952702    21.029835    20.434338    51.259443   0.11950197  0.027220733  0.051331594    0.1980543   0.69586371   0.12955496   0.14046835   0.96588702 
   11200    1194.3833   -13272.569   -13264.078    8971.4551    11.412329    21.084636    20.354994    52.851959  0.089675641   0.13112368   0.02397812   0.24477744   0.79237051   0.15323614   0.13603919    1.0816458 
   11300    904.77945   -13272.353    -13265.92    6796.1331    10.177188    19.713352    20.733728    50.624269  0.078740544   0.19670359  0.099766677   0.37521081   0.83343286   0.24670732   0.20227181     1.282412 
   11400    954.57935    -13271.96   -13265.174    7170.1986    10.281518    19.073536     21.23311    50.588165   0.13474719    0.1751133   0.09658748   0.40644797   0.92238624   0.23144648   0.19335175    1.3471845 
   11500    1005.2719   -13271.169   -13264.022    7550.9689    10.845886    19.647589    21.379751    51.873227  0.056226987   0.12019505  0.049572789   0.22599482   0.89146617   0.20684782   0.15507446    1.2533884 
   11600    886.24131   -13272.693   -13266.393    6656.8863    10.220548    20.263854    22.326514    52.810916  0.065283824  0.042473436  0.035558361   0.14331562    1.0497022  0.083810842   0.11493622    1.2484493 
   11700     977.1325   -13272.706   -13265.759    7339.6036    10.411993    20.501447    22.669208    53.582647  0.029179036  0.041083329  0.043058353   0.11332072    1.0462781   0.12154987   0.14896127    1.3167893 
   11800     1233.212    -13273.29   -13264.523    9263.1114    10.299833    19.660761    22.460157     52.42075  0.074146556   0.22860255  0.057584353   0.36033346   0.93503485   0.23047513  0.094119518    1.2596295 
   11900    1161.0777    -13273.01   -13264.755    8721.2844    9.9677075    19.926866     20.71372    50.608293  0.026657949   0.27143264  0.021953764   0.32004436   0.91689693   0.33132819  0.070755378    1.3189805 
   12000    803.18016   -13272.229   -13266.519    6032.9832    11.033697    20.117359    22.190056    53.341112  0.051365896   0.24485478   0.02469391   0.32091459     1.031078   0.31796471   0.12523488    1.4742776 
   12100    1175.9863   -13272.823   -13264.463    8833.2679    11.303198    20.403908    22.116026    53.823133  0.060371185   0.23491025  0.062908503   0.35818994    1.2367514   0.28324988   0.20042659    1.7204278 
   12200    879.09184   -13271.502   -13265.252     6603.184    10.334336    20.388916    22.779911    53.503163   0.11427585  0.076343845   0.07660572   0.26722542     1.311094   0.12933124    0.2123514    1.6527767 
   12300    866.21142   -13273.267   -13267.108    6506.4344    10.390457    20.667534    22.066796    53.124787  0.096215274  0.073126249  0.082594379    0.2519359    1.4875202   0.10262699    0.1568358     1.746983 
   12400    908.57171   -13272.787   -13266.328    6824.6182    9.5478757    22.987456     23.56727    56.102601  0.061092991  0.066885491   0.11650542    0.2444839    1.4575664  0.072963114   0.16806102    1.6985905 
   12500    1028.4919   -13272.094   -13264.782    7725.3831    9.7294808    22.891472    21.267244    53.888197  0.058901288  0.023785365   0.14695148   0.22963814    1.2222678  0.056553078   0.20452785    1.4833488 
   12600    1093.6324   -13272.081   -13264.306    8214.6774    10.645207    23.453133    21.414913    55.513253  0.097650753   0.04045595  0.083980948   0.22208765     1.202998  0.046291499   0.12303499    1.3723245 
   12700     861.5535   -13272.809   -13266.684     6471.447     11.28943    22.050088    20.748665    54.088183   0.19921221  0.029724858  0.037682075   0.26661914    1.2219746  0.058592974   0.11014259    1.3907101 
   12800     1021.307   -13272.829   -13265.568    7671.4144    12.413619    24.742455    19.006459    56.162532   0.13764321  0.036794981 0.0094968115     0.183935    1.0362627  0.074745078  0.033995138    1.1450029 
   12900    1035.0008   -13273.177   -13265.819    7774.2736     12.01749    26.621319    20.403844    59.042653  0.092740466  0.038215783  0.030850847    0.1618071     1.067826  0.052630717  0.070342587    1.1907993 
   13000    973.82685   -13273.363    -13266.44    7314.7737    12.313986    25.875446    18.018903    56.208335  0.036551197  0.059578624  0.032775316   0.12890514   0.98950441   0.10819345  0.059812567    1.1575104 
   13100    986.69086   -13274.305    -13267.29       7411.4    11.991962    25.016738    17.460683    54.469383  0.017545506  0.010932098  0.025030176  0.053507781   0.99479473  0.044536741  0.055435169    1.0947666 
   13200    902.10806   -13273.078   -13266.665    6776.0673     12.06491    25.632119    16.386181     54.08321  0.021688957  0.048326631  0.046035744   0.11605133    1.2447725  0.041793331  0.085533919    1.3720998 
   13300    1160.8216    -13273.65   -13265.398    8719.3605    13.238561     25.69643    19.365235    58.300227   0.03009122  0.092416039  0.013951903   0.13645916    1.0944961  0.079880788   0.11117668    1.2855535 
   13400    953.88377   -13274.198   -13267.417    7164.9738    14.006889    26.582407    17.717441    58.306737   0.07096774  0.057768987   0.02123564   0.14997237   0.97960375  0.094481528  0.098802962    1.1728882 
   13500     971.0085   -13272.271   -13265.368     7293.604    14.442442     25.05565    17.541273    57.039365  0.056679131    0.0745657   0.03926239   0.17050722    1.2215328   0.12448469  0.072976972    1.4189945 
   13600    1035.9136   -13271.991   -13264.627    7781.1304    15.677481    23.366348    16.265873    55.309702    0.0730397   0.11104217  0.021989637   0.20607151    1.3333724   0.13788193  0.099641573    1.5708959 
   13700    907.17875   -13273.416   -13266.967    6814.1551    15.851498    25.367786    16.795146     58.01443  0.047063784  0.093046789  0.034703098   0.17481367    1.0524308  0.099111117   0.13952158    1.2910635 
   13800    1072.0485   -13273.724   -13266.102     8052.553    16.451116    25.601575    16.537274    58.589964  0.045974779  0.038659292     0.013883   0.09851707    1.1919444  0.085415515   0.12376112     1.401121 
   13900    1030.9305   -13272.483   -13265.154       7743.7    16.570136    27.708193    17.635763    61.914093  0.034739681  0.014057254   0.07918998   0.12798692    1.0440977  0.040356193  0.086295701    1.1707496 
   14000    982.46723   -13273.666   -13266.681    7379.6747    17.845008    28.803167    18.766959    65.415134  0.021585489  0.043516694  0.078278411   0.14338059   0.71522786  0.066553561  0.068249969   0.85003139 
   14100    1029.9814   -13271.358   -13264.036    7736.5712     16.26501    28.802452    19.882073    64.949535  0.045496834   0.09922028    0.1327047   0.27742182   0.54635143   0.13975889   0.10067387   0.78678419 
   14200    849.15733   -13272.124   -13266.087    6378.3348    18.352503    30.703046    20.277838    69.333387  0.043205465   0.20740138  0.033577207   0.28418406   0.76453111   0.22830504  0.099928824     1.092765 
   14300    1062.0619    -13273.67   -13266.119    7977.5401    18.441695    30.282151    20.226885    68.950732  0.092833565    0.1047325  0.045758312   0.24332438   0.95556336   0.17715546  0.058704696    1.1914235 
   14400    1066.4537   -13271.625   -13264.043    8010.5279    18.937594    33.365003    20.825978    73.128575  0.033668372  0.032412796   0.11011874   0.17619991   0.80836355   0.12783355  0.091179072    1.0273762 
   14500    949.37729   -13273.594   -13266.844     7131.124    18.104868    32.275002    21.116156    71.496026   0.03340148  0.045207246  0.088971123   0.16757985   0.58743173  0.072584298   0.13325759   0.79327362 
   14600    1056.1733   -13273.695   -13266.187     7933.308    18.037501    33.156352    21.035011    72.228864   0.02061672  0.020265444  0.085481916   0.12636408   0.49753007  0.058723263   0.11213933   0.66839266 
   14700    1021.0606   -13270.815   -13263.556    7669.5641    18.879312    32.822301    19.903524    71.605137 0.0043968806  0.050150034  0.081466067   0.13601298   0.55950813   0.10909486  0.097554999   0.76615799 
   14800    961.47216   -13272.386    -13265.55     7221.973    20.021026    33.456853    20.955804    74.433683  0.058237072   0.05974744   0.05376966   0.17175417   0.74159498  0.069517318  0.049766765   0.86087906 
   14900    954.62024   -13272.759   -13265.972    7170.5057    19.984729    34.149018    20.443545    74.577292   0.05864193 0.0059736292   0.04318777   0.10780333   0.77112707  0.020189974  0.052500684   0.84381773 
   15000    1133.5753   -13272.455   -13264.396    8514.7032    19.083469    34.524251    19.964921     73.57264  0.098309672  0.016741837   0.04158174   0.15663325   0.83538089  0.058742715   0.05241507   0.94653868 
   15100    971.03473   -13273.409   -13266.506     7293.801    19.055492    34.669833    21.659508    75.384833   0.14599389   0.03414842  0.040855326   0.22099764   0.96196571  0.058631636  0.065695997    1.0862933 
   15200     923.4922   -13272.274   -13265.709    6936.6915    17.880679    34.804324    22.508444    75.193446  0.043768839  0.023628566  0.054498003   0.12189541   0.78429877  0.049132327  0.056766549   0.89019765 
   15300    1214.1311   -13273.512    -13264.88    9119.7877    18.892612    35.229516    22.433082     76.55521  0.015136436  0.019076248  0.048196183  0.082408867   0.58230268  0.042739205   0.06671957   0.69176145 
   15400    957.08512   -13273.429   -13266.624    7189.0204    19.390527    36.843198    21.609161    77.842885  0.049575229  0.014718954  0.074739309   0.13903349   0.82984839  0.049810114  0.081391128   0.96104963 
   15500    1261.3185   -13273.727   -13264.759    9474.2294    19.819063    36.358422    22.470246    78.647731  0.028571122  0.083689751  0.020712633   0.13297351   0.74774274   0.11621493  0.054569184   0.91852685 
   15600    849.48938   -13271.708   -13265.669    6380.8289    20.148663    35.712799      21.0749    76.936362  0.045727984  0.051430593  0.068558794   0.16571737   0.65391408   0.13940232   0.11462392   0.90794032 
   15700    1089.7864   -13273.337   -13265.589    8185.7887    21.114578    33.919893    22.327128    77.361599   0.01610873  0.013515874  0.039282332  0.068906936   0.65618553  0.053954995  0.079042679    0.7891832 
   15800    844.27458   -13272.392   -13266.389    6341.6586    20.722957    34.599502    20.563837    75.886295  0.043013969  0.076136408  0.080077572   0.19922795   0.88884571  0.087404513  0.092588175    1.0688384 
   15900    1040.1952   -13271.491   -13264.096    7813.2905    21.110921    33.642554    19.635583    74.389059   0.13963839  0.052530551  0.058408919   0.25057786    0.8954063  0.084788872  0.078227142    1.0584223 
   16000    1024.0497   -13272.443   -13265.163     7692.016     20.18558    34.622347    20.348324    75.156251  0.044277505  0.035559477  0.048184976   0.12802196   0.73584215  0.066578538  0.062867265   0.86528796 
   16100    959.76133   -13273.363    -13266.54    7209.1224    20.466493    32.883538    20.197675    73.547706  0.045466288  0.022061005  0.021713463  0.089240756    0.4649317  0.059627208  0.046754748   0.57131366 
   16200    921.10136   -13271.416   -13264.868     6918.733    20.006333    34.077337    20.382316    74.465986  0.058638748  0.031408375    0.0194401   0.10948722   0.41518312  0.053252574  0.035230002   0.50366569 
   16300    1200.0279   -13272.785   -13264.254    9013.8532     19.18475    33.405693     20.13781    72.728253  0.036797925  0.021191951  0.025022352  0.083012228   0.36746841  0.057174795  0.077338797     0.501982 
   16400    1075.2937   -13273.289   -13265.644    8076.9289    18.912208    35.380344    20.201864    74.494417  0.075914317  0.029739158  0.023628378   0.12928185    0.4036359  0.083434989  0.064291845   0.55136273 
   16500    862.02465   -13272.334   -13266.206     6474.986    18.912367    33.779697    21.371465    74.063529   0.08438028  0.066085425  0.041578289   0.19204399   0.65473963   0.13360602   0.08318179   0.87152744 
   16600    992.26948   -13270.779   -13263.725    7453.3031    20.173934    32.633764    20.616461    73.424159   0.10824549   0.04019089  0.037004994   0.18544137   0.75747983  0.090091248  0.078379111   0.92595019 
   16700    1001.2581   -13272.093   -13264.975    7520.8201    20.157224    32.775714    22.312996    75.245935  0.058610488  0.060114004  0.048815806    0.1675403   0.58494708   0.10794464  0.098463539   0.79135526 
   16800    971.87027   -13273.109     -13266.2    7300.0771     19.62874    36.143123    23.115809    78.887672  0.031936966  0.051896498  0.077415553   0.16124902   0.62594659   0.13590763   0.13514977   0.89700399 
   16900    965.81693   -13271.348   -13264.481    7254.6082    19.626466    36.481699     24.03594    80.144105  0.077454546  0.063138106  0.030142494   0.17073515   0.73748397  0.080675077  0.076768008   0.89492705 
   17000    874.06838   -13273.028   -13266.814    6565.4509    20.552018    37.171901    24.356405    82.080324    0.1140099  0.063300427   0.11670615   0.29401648   0.78767006  0.086555646  0.096182123   0.97040783 
   17100    946.47036   -13273.039    -13266.31    7109.2889    20.649464     36.11669    25.184212    81.950366  0.086097378  0.058680331  0.091396566   0.23617428   0.65380572   0.11284081   0.10497156   0.87161809 
   17200    984.73839     -13272.2   -13265.199    7396.7343    20.304014    35.227351    25.252442    80.783807   0.13632034  0.041419071   0.15620469    0.3339441   0.60873636   0.10110934   0.21956811   0.92941381 
   17300    973.21794   -13273.588   -13266.669    7310.1999    20.380812    36.038849    25.558222    81.977884   0.15789167   0.02954823   0.17614523   0.36358514   0.53240079   0.12221014    0.2046814   0.85929233 
   17400    871.10479   -13272.753    -13266.56    6543.1902    21.899845    36.232501    27.474733     85.60708   0.21327203  0.034148398  0.066668655   0.31408908   0.58422857   0.09743009   0.11595049   0.79760915 
   17500    945.46412    -13272.12   -13265.399    7101.7307    22.322632    38.682595     28.07714    89.082366    0.1164449  0.031956446  0.077181119   0.22558246   0.55363575   0.10018114   0.11426709   0.76808399 
   17600    1161.4657   -13272.476   -13264.218    8724.1988    22.455931    37.803582    29.065753    89.325267  0.095078002  0.042227592  0.035154146   0.17245974   0.61634468  0.085650555  0.072320049   0.77431529 
   17700    812.08484   -13272.128   -13266.355    6099.8696    23.202212    38.379929    29.135836    90.717977   0.12527524  0.028370653  0.034379895   0.18802579   0.62983941  0.074616537  0.087638326   0.79209427 
   17800    980.17841   -13272.111   -13265.143    7362.4826    24.797685    39.323119     28.69322    92.814024   0.13127101  0.050927576  0.025714443   0.20791303   0.78070822  0.098357536   0.10021506   0.97928082 
   17900    1098.1778    -13272.64   -13264.832    8248.8193     24.18174    41.413614    28.006042    93.601396  0.055932269  0.058992417  0.064267079   0.17919177   0.57311202   0.11801427  0.091794956   0.78292124 
   18000    1148.8354   -13272.494   -13264.327    8629.3276    22.401127    40.831644    26.833246    90.066016  0.095148842  0.063673483  0.059121606   0.21794393    0.5093818  0.093504238  0.073834791   0.67672083 
   18100    1146.7734    -13273.17   -13265.017    8613.8392    24.377115    44.003243    27.876594    96.256953  0.075634604  0.052664304 0.0099710425   0.13826995   0.49204007  0.098131175  0.065317951    0.6554892 
   18200    869.06671   -13272.261   -13266.082    6527.8815    25.417661    43.223576     28.94154    97.582776  0.094702144  0.029955019  0.052056281   0.17671344   0.58900097  0.054055616  0.071804404   0.71486099 
   18300    1082.9486   -13272.136   -13264.437    8134.4274    24.768699    42.232596    29.885171    96.886466   0.10974259  0.012217148   0.01982946    0.1417892   0.39722686  0.034256612  0.059142382   0.49062585 
   18400    1025.1398   -13271.963   -13264.675    7700.2044    26.381989    44.524435    28.466235     99.37266  0.051686215  0.013706605  0.049152713   0.11454553   0.32068284  0.057059423  0.073595113   0.45133738 
   18500    1144.1513   -13271.507   -13263.373    8594.1439    27.040949    45.353621    27.973272    100.36784   0.14403821  0.030910753  0.046593117   0.22154208   0.36421628  0.080233414  0.088812269   0.53326196 
   18600    1018.5364   -13271.452   -13264.211    7650.6035    27.647724    44.756884    30.060224    102.46483  0.084435439  0.081430226  0.044703467   0.21056913   0.39051442  0.089998887  0.069318369   0.54983168 
   18700    1068.0056   -13273.308   -13265.715     8022.185    27.537936    44.513001    27.985763     100.0367  0.076938531  0.031004009  0.062603012   0.17054555    0.4196652  0.072630843  0.070250956     0.562547 
   18800     862.7475   -13272.018   -13265.884    6480.4156    26.456901    41.834309    30.168037    98.459246   0.14254521  0.045712256   0.13583284   0.32409031   0.58597805   0.11441823   0.14717554   0.84757182 
   18900    1030.4631   -13271.639   -13264.313    7740.1895    27.621121    42.950266     29.14472    99.716108   0.10737407   0.15384651    0.2229975   0.48421808   0.65934405   0.20139383   0.26765664    1.1283945 
   19000    1105.3311   -13270.862   -13263.004    8302.5511    29.057992    42.171898    29.070024    100.29991   0.10526252   0.07442016   0.23635045   0.41603313   0.69752508   0.18635023   0.29740118    1.1812765 
   19100    1036.9661   -13272.766   -13265.394    7789.0359    28.788425    42.155573      28.8976    99.841597   0.11588876  0.044947117   0.10888152   0.26971739   0.76497229   0.15015837   0.18321381    1.0983445 
   19200    985.72514   -13272.523   -13265.516    7404.1461    28.653271    42.182606    27.894128    98.730005   0.12553446  0.052123086   0.12196003   0.29961758   0.65432072  0.087622515   0.16329928   0.90524252 
   19300    866.46914   -13273.889   -13267.729    6508.3702    27.294353    40.914258    27.046022    95.254633  0.025914935  0.011584665   0.11915904   0.15665864   0.73984997   0.04969897   0.14604326    0.9355922 
   19400    1009.5747   -13272.494   -13265.317    7583.2889    26.988256    40.344178    27.912504    95.244938  0.060407621  0.050729105   0.06359844   0.17473517   0.67093207   0.10958377   0.13205398   0.91256981 
   19500     1151.284   -13273.091   -13264.906      8647.72    28.012145    37.527322    27.870435    93.409902  0.083459446  0.050590248  0.046948464   0.18099816   0.61997267  0.097671966   0.10313685   0.82078148 
   19600    963.94833   -13274.171   -13267.318    7240.5725    27.141347    36.734957    27.506559    91.382863  0.067778301  0.040959291  0.028034513   0.13677211   0.55544725  0.083966944  0.075440683   0.71485488 
   19700    1110.6143   -13273.774   -13265.879    8342.2346     27.10637    37.591527    27.019574    91.717471    0.1451082  0.062827577  0.063869154   0.27180493   0.61762267  0.096986463   0.11076151   0.82537064 
   19800    1033.7945   -13272.334   -13264.984     7765.213    29.087206    40.431043    26.354549    95.872798  0.096190691   0.08272153  0.083993427   0.26290565   0.56376633  0.085872769   0.12518769   0.77482679 
   19900    1016.8132   -13273.225   -13265.996    7637.6599    27.918503    40.983475    27.113061    96.015039  0.086602632    0.1484626  0.044502793   0.27956802   0.63666133   0.14029895  0.070617218    0.8475775 
   20000    791.27009   -13273.499   -13267.874    5943.5223    28.698565    38.567801    25.827468    93.093834  0.044400279   0.17976437   0.06780864   0.29197329   0.65825773   0.22252106   0.11267647   0.99345525 
   20100    1120.4328   -13273.209   -13265.243    8415.9848    29.436046    38.274099    25.222434    92.932578  0.083954162   0.11839327  0.063811013   0.26615845   0.63418614   0.11921735   0.12129169   0.87469518 
   20200    1094.8575    -13272.79   -13265.006    8223.8799     29.44649    38.768304     25.14522    93.360015  0.018109551  0.023294165  0.078156436   0.11956015   0.62710926  0.050118906   0.11338133    0.7906095 
   20300    955.00052   -13273.555   -13266.765    7173.3621    31.436288     40.14276    27.542753    99.121801  0.012580886  0.069958694  0.040362962   0.12290254   0.64196247  0.065299828   0.06416075   0.77142305 
   20400    903.04217   -13273.824   -13267.404    6783.0838     30.24453    40.339113    25.879312    96.462954  0.071839862  0.051175533  0.082972879   0.20598827   0.47933269  0.069905555  0.084832591   0.63407084 
   20500    1038.5068   -13272.569   -13265.186    7800.6087    29.258722    40.738367    27.256165    97.253254  0.084263793  0.073778335  0.056923047   0.21496517   0.33491998   0.10964277  0.094688683   0.53925143 
   20600    1064.3011   -13273.648   -13266.082    7994.3595    29.744041     43.18103    26.612523    99.537594  0.048451222  0.040040815  0.047526943   0.13601898   0.20660293   0.11125029   0.08968385   0.40753708 
   20700    781.85332   -13272.703   -13267.145    5872.7895    30.964847    41.742042    26.408174    99.115063  0.041509485   0.04106885  0.048576317   0.13115465   0.26979028  0.094551779  0.093160558   0.45750262 
   20800    977.60976   -13272.569   -13265.619    7343.1885    30.722996    43.136201    26.776343    100.63554  0.019596417  0.028645063  0.043910498  0.092151977   0.34864607  0.098412679   0.11357884   0.56063759 
   20900    1297.7912   -13273.161   -13263.935    9748.1896    30.335944    43.990913    27.180999    101.50786  0.035170094  0.032909019   0.06012072   0.12819983   0.34679603  0.077199498   0.10635346   0.53034898 
   21000    808.94155   -13272.091    -13266.34    6076.2592    28.887244    43.228952    26.248945    98.365141  0.056402509  0.071663725  0.097022955   0.22508919   0.30021713  0.093648292   0.13516289   0.52902831 
   21100    1049.9805   -13273.638   -13266.173    7886.7922     29.34337    42.845265    28.533934    100.72257   0.08700168  0.067728044   0.17209411   0.32682384   0.27026095   0.13035845   0.20684688   0.60746628 
   21200    934.29538   -13272.227   -13265.584    7017.8382     29.79615    44.438093    28.086337    102.32058  0.095950105   0.13188568   0.23850519   0.46634097   0.27493434   0.15444448   0.30435546   0.73373428 
   21300    1121.4477   -13273.085   -13265.112    8423.6082    28.516562    44.401504    28.571184    101.48925   0.09759654  0.038547754   0.16092736   0.29707165   0.26445596   0.13541638   0.29287357   0.69274591 
   21400    906.35164   -13272.604   -13266.161    6807.9424    29.266377    46.309305    29.100959    104.67664  0.036559183  0.054831343   0.14277523   0.23416576   0.23879563   0.16882117   0.15868218   0.56629898 
   21500    1015.0493   -13273.197   -13265.981     7624.411    29.756429    48.617935      29.6272    108.00156  0.014077606    0.1392209  0.027969306   0.18126781   0.11526452   0.19085233   0.06974017   0.37585701 
   21600    967.45717   -13274.601   -13267.723    7266.9287    29.759998    47.072081    29.554141    106.38622  0.028476298  0.030176013  0.019818297  0.078470608   0.11039149  0.043519632  0.033347425   0.18725854 
   21700    868.14071   -13274.332    -13268.16    6520.9259    29.818159    44.122796    30.657241     104.5982  0.042330968  0.088686088  0.052161652   0.18317871   0.13022597   0.07397459  0.062238988   0.26643955 
   21800    998.26293   -13272.564   -13265.467    7498.3221    29.440247    45.486194    30.692674    105.61912  0.079561287   0.01924722  0.060509803   0.15931831   0.22707605   0.07569121  0.087082444    0.3898497 
   21900    986.73381   -13271.857   -13264.842    7411.7226    28.190465    45.805033    29.313765    103.30926  0.067075951   0.03225859  0.035216363    0.1345509   0.22946317  0.069212632  0.071625591   0.37030139 
   22000    1126.5425   -13272.159    -13264.15    8461.8773    29.212769    46.922762    31.528848    107.66438  0.046963324   0.10343298   0.10119954   0.25159584   0.19711569   0.11204948  0.097901133   0.40706631 
   22100    1050.2738   -13273.557    -13266.09    7888.9949    30.750532    48.036354    33.444665    112.23155  0.072425213  0.061922258  0.048179737   0.18252721   0.15805916  0.081233903  0.065963247   0.30525631 
   22200     901.6578    -13273.87    -13267.46    6772.6853     30.82217    49.220814    31.890706    111.93369  0.015289296  0.037306455  0.031725859  0.084321611   0.10540584  0.044044312   0.06138305   0.21083321 
   22300    827.76591   -13274.108   -13268.224    6217.6559    31.663476    48.607513    32.910536    113.18152  0.074056436  0.028627577  0.025079156   0.12776317   0.13155141  0.046173356  0.049313235     0.227038 
   22400    1044.8641   -13273.636   -13266.207    7848.3608     31.64198    48.759748     30.78484    111.18657  0.066488195  0.032051488  0.047984214    0.1465239   0.16828561  0.072125183  0.059679371   0.30009017 
   22500    1074.3407   -13274.281   -13266.643    8069.7703    32.686362    48.940461    31.827156    113.45398  0.022128887  0.046533051  0.038354893   0.10701683   0.27203777  0.075366007   0.06851279   0.41591656 
   22600    1125.5114   -13272.742   -13264.741    8454.1323    31.247435    49.106588    30.490786    110.84481  0.030888959  0.030214328  0.024321923   0.08542521   0.34548565  0.053882411  0.059741557   0.45910962 
   22700    1026.0733   -13271.798   -13264.503    7707.2161    30.800972    48.639416    29.626728    109.06712     0.059668  0.018005914  0.060530342   0.13820426   0.35600131   0.05187649   0.05999783   0.46787563 
   22800    900.19907   -13273.289   -13266.889    6761.7282    30.735153    50.966771    32.102506    113.80443  0.049742411     0.046208  0.048928041   0.14487845   0.33221093  0.090740684  0.094132162   0.51708377 
   22900    921.32542   -13271.141   -13264.591     6920.416    30.431458    50.069726    31.265925    111.76711  0.062824346  0.054738408  0.038153965   0.15571672   0.48324519  0.083720232  0.072108252   0.63907367 
   23000    881.44417   -13271.486    -13265.22    6620.8532    30.059978    47.047356     32.92466    110.03199  0.048335861  0.069520856  0.031557026   0.14941374   0.36807658  0.074662754  0.053412265    0.4961516 
   23100    1068.1623   -13273.661   -13266.067     8023.362    31.916249    45.994033    34.218551    112.12883  0.058541727  0.046085146  0.024439984   0.12906686    0.2791929  0.054347425  0.019176848   0.35271717 
   23200    879.03465   -13272.577   -13266.328    6602.7544    31.678902    44.389744    34.977471    111.04612  0.029764296  0.073020645  0.039981696   0.14276664   0.17660661   0.10585807    0.0629848   0.34544949 
   23300    1133.7323   -13271.776   -13263.716    8515.8823    29.615919    46.363106    32.929071     108.9081  0.026604703  0.025756429  0.042655593  0.095016724   0.10495429  0.079002468  0.079969569   0.26392633 
   23400    940.51957   -13272.493   -13265.807    7064.5904    29.951929    48.453972    32.804641    111.21054  0.046439546  0.070121441  0.066735892   0.18329688   0.16542789   0.10006118  0.057743311   0.32323238 
   23500    957.19862   -13272.929   -13266.124    7189.8729    30.147214    50.645277    33.617894    114.41038  0.042123556  0.058920998  0.095633951   0.19667851   0.21635855  0.072352162   0.11149449    0.4002052 
   23600    1143.7338   -13272.009   -13263.878    8591.0078     32.36013    48.983872    32.158842    113.50284  0.074391648  0.070042955  0.060100675   0.20453528    0.2243035    0.1261141  0.086066539   0.43648414 
   23700    1129.0601   -13273.247    -13265.22    8480.7883     31.38769    48.159303    32.488752    112.03575  0.035258266  0.097265233   0.03996917   0.17249267    0.2418685    0.1790099   0.11839566   0.53927406 
   23800    897.12917   -13273.305   -13266.927     6738.669    33.397759    50.054186    33.353248    116.80519   0.04735419  0.039466235  0.045142058   0.13196248   0.22664159  0.058961581  0.051439036   0.33704221 
   23900    1019.3579   -13275.962   -13268.715    7656.7744    32.628721    49.477376    34.747852    116.85395   0.01903511  0.022380753   0.03733265  0.078748513   0.16871434  0.036954237  0.075484585   0.28115316 
   24000    823.27114   -13274.863    -13269.01    6183.8941    33.010345    51.423782    35.137738    119.57186  0.032120049  0.014165147    0.0771325    0.1234177   0.12915532  0.070064172  0.089666125   0.28888562 
   24100    955.64553   -13273.243   -13266.449     7178.207    32.776323    52.080528    33.119425    117.97628  0.021399588  0.086725979  0.056398612   0.16452418   0.17900452  0.099632969   0.11290633   0.39154382 
   24200    1153.5439   -13274.075   -13265.874     8664.695      31.5298    51.257553    34.121831    116.90918  0.025353087  0.055015803  0.050716423   0.13108531   0.13094372  0.053602246  0.060550656   0.24509662 
   24300    973.30953    -13274.64    -13267.72    7310.8878    31.771756     53.06687    34.293501    119.13213  0.047410659  0.029974783  0.017263888  0.094649329   0.11098608  0.049784365  0.031296402   0.19206685 
   24400    1032.1007    -13274.79   -13267.453      7752.49    30.887007    52.982472    34.029433    117.89891  0.073611124  0.024232576  0.024982968   0.12282667  0.086772603   0.04098778  0.035378218    0.1631386 
   24500    1041.9096   -13274.355   -13266.948    7826.1686    33.533375    50.036423    35.346286    118.91608  0.013992593  0.027759594  0.029457827  0.071210013   0.12816744  0.073505371  0.071410637   0.27308344 
   24600     822.6793   -13273.166   -13267.317    6179.4485    33.195582     52.86719    34.239838    120.30261  0.058714085  0.036569089  0.073631008   0.16891418   0.19528249   0.11365528  0.087079132    0.3960169 
   24700    963.67968   -13272.828   -13265.977    7238.5545    34.994964    48.909594    33.869808    117.77437  0.035615991  0.058960554  0.059737778   0.15431432   0.18115949   0.16841521   0.16834383   0.51791854 
   24800    1092.9632   -13272.868   -13265.098    8209.6509     34.77076    47.925069    34.742025    117.43785 0.0089756531   0.07642478   0.09263665   0.17803708   0.16549207   0.12741973   0.15689627   0.44980807 
   24900    884.91548   -13273.764   -13267.473    6646.9275    34.021124    49.879651    33.331307    117.23208  0.061194099   0.07762061  0.077654218   0.21646893   0.26650913   0.10647531  0.086237687   0.45922214 
   25000    1092.6408   -13273.441   -13265.673     8207.229    34.064548    49.408294    33.147127    116.61997  0.062265067  0.022661446  0.040285129   0.12521164    0.3105371  0.074547153  0.068817236   0.45390149 
   25100    808.09944   -13271.719   -13265.974    6069.9338    32.794269    53.928266    35.108944    121.83148  0.069554869    0.1002904   0.13564237   0.30548764   0.33057324   0.12996298   0.15394538    0.6144816 
   25200    1149.3847   -13272.326   -13264.155    8633.4537    34.538285    54.289688    34.345152    123.17313   0.10582471   0.03121339  0.071834104   0.20887221   0.34523744  0.098261104   0.11756065   0.56105919 
   25300     966.8744   -13272.285   -13265.411    7262.5512    38.363309    51.146599    31.861373    121.37128   0.10759112  0.077667776   0.04232878   0.22758768   0.61581023  0.073784159    0.0471194   0.73671379 
   25400    974.48872   -13272.714   -13265.786    7319.7452    36.424679     50.49777    32.084378    119.00683  0.062511426  0.064063055  0.021325236   0.14789972   0.48650449  0.083504779  0.056848268   0.62685754 
   25500    1058.9885   -13271.384   -13263.855    7954.4544    36.802321    47.929115    33.994901    118.72634   0.11110507  0.051874805  0.011480371   0.17446025   0.37341761  0.072157699  0.040478209   0.48605352 
   25600    894.43928    -13272.08   -13265.721    6718.4642    35.219858    51.066901    34.749575    121.03633  0.092122029  0.026263546  0.050109791   0.16849537   0.38814056  0.032102599  0.054263163   0.47450632 
   25700    1040.8518   -13273.635   -13266.235    7818.2231    35.952778    54.070697    37.614566    127.63804  0.036942504  0.024118348 0.0083115074   0.06937236   0.34423795  0.046127388  0.034327877   0.42469322 
   25800    1126.2711   -13272.722   -13264.715    8459.8386    36.275711    54.842884    39.094578    130.21317  0.067094328  0.061798893  0.034881652   0.16377487   0.32259183  0.062557001  0.051444979   0.43659381 
   25900    1135.9712    -13273.51   -13265.434    8532.6996    36.546012    54.535977    38.499112     129.5811  0.061607329  0.031142848  0.035121932   0.12787211   0.26654981   0.04732348  0.048085019   0.36195831 
   26000    861.22345   -13273.033   -13266.911    6468.9679    36.088355    55.045615    39.186305    130.32028  0.054946596  0.068099983  0.035828794   0.15887537   0.30732761  0.065109686  0.040830313   0.41326761 
   26100    1006.9135   -13272.127   -13264.968    7563.2999    36.804833    53.736235    37.422612    127.96368  0.041436605  0.033042433  0.060052716   0.13453175    0.2961988    0.1216593   0.11202692   0.52988501 
   26200    1115.7147    -13271.82   -13263.888    8380.5454    37.097202    53.049172    36.966839    127.11321   0.10345606  0.023427816   0.10146478   0.22834866   0.38747775   0.10956794   0.17661794   0.67366363 
   26300    853.41766   -13272.331   -13266.264    6410.3357    38.034742    54.203729    37.473314    129.71179  0.089796531  0.054737827  0.017741766   0.16227612   0.28189796   0.11431732   0.09596898   0.49218426 
   26400    1122.5248   -13273.434   -13265.453    8431.6986     36.74631    52.565925    38.703217    128.01545  0.071485018  0.056425615  0.047490649   0.17540128   0.19651765  0.087420895  0.070950346   0.35488889 
   26500    977.78254    -13274.19   -13267.239    7344.4863    35.458656    50.485223    39.873853    125.81773  0.038897319   0.14244938  0.026930956   0.20827765    0.1772617   0.16078648  0.050517228   0.38856541 
   26600    965.52559    -13273.64   -13266.775    7252.4198    35.846607    51.344916    41.962325    129.15385  0.041800864  0.051262771   0.02269437   0.11575801   0.21445134    0.1267469  0.046420829   0.38761907 
   26700    882.03647   -13271.282   -13265.012    6625.3021    38.130555    53.388342    43.700407     135.2193  0.063720893  0.063819159  0.010433787   0.13797384    0.2883613   0.14153575  0.069415691   0.49931274 
   26800    1235.1444   -13272.887   -13264.106    9277.6264    38.631555    56.295245    44.709869    139.63667  0.054197422   0.03773528  0.030721344   0.12265405   0.21603491  0.059563178  0.072155059   0.34775314 
   26900    767.22234    -13272.92   -13267.466    5762.8907     35.35747    54.381782    45.744114    135.48337  0.059868411  0.017115554  0.095156078   0.17214004    0.1666449  0.048361669  0.067289476   0.28229604 
   27000    1169.2309   -13274.382   -13266.069    8782.5261    35.214365     54.15746    49.276006    138.64783  0.041655974  0.058776608  0.036533098   0.13696568   0.15077877   0.09042665  0.039874156   0.28107958 
   27100    1147.2604   -13271.229   -13263.073    8617.4973    34.572338    53.057024    49.157129    136.78649   0.19201819   0.02300293   0.01929868    0.2343198   0.38726254   0.08777524  0.073780707   0.54881848 
   27200    993.11542   -13272.496   -13265.436    7459.6572    35.743518    55.009441    50.208092    140.96105   0.22287749  0.047300913   0.03273432   0.30291272   0.62150577  0.074841838  0.091555609   0.78790321 
   27300    843.25807   -13272.273   -13266.278    6334.0233    36.195052    54.808116    49.127319    140.13049   0.21931059   0.18514784   0.05992143   0.46437985   0.60981189   0.16247103   0.07827431   0.85055723 
   27400    1151.9618   -13272.494   -13264.304    8652.8109    36.206487     55.80763    50.062486     142.0766   0.14569474  0.041638666   0.08490463   0.27223804   0.57634721   0.06666303   0.10055906    0.7435693 
   27500    1071.9762   -13273.773   -13266.152    8052.0097    36.440674    53.694106      50.1926    140.32738   0.18419849  0.054228905  0.058630006    0.2970574   0.55559736  0.044348135   0.05834158   0.65828708 
   27600    806.49636   -13273.138   -13267.404    6057.8925    38.504601    51.713569    47.222993    137.44116   0.11665337  0.010188453  0.031419517   0.15826134   0.62849839  0.071890147  0.079462743   0.77985128 
   27700    1052.1366   -13271.781   -13264.301    7902.9873    37.397248    50.191877    47.256425    134.84555   0.16633164  0.049469889  0.040139259   0.25594079   0.60663059    0.1105009    0.1123707   0.82950219 
   27800    1113.4222   -13271.309   -13263.393    8363.3261    36.269954    49.938516    47.028874    133.23734   0.14863103  0.047252335  0.018370259   0.21425362   0.67390803   0.11790366  0.073620193   0.86543189 
   27900    961.05121   -13272.932   -13266.099    7218.8111    36.431454    50.183108    48.079125    134.69369   0.11789184  0.048766134  0.024312882   0.19097086   0.56359257  0.070052209  0.047314205   0.68095898 
   28000    1071.5316    -13272.96   -13265.342      8048.67    37.325171    48.339778    50.176457    135.84141   0.01792022  0.055788512  0.020981985  0.094690718    0.5141901  0.082027579  0.056716079   0.65293376 
   28100    763.50134   -13272.666   -13267.238    5734.9409    37.503884    48.601672    51.307707    137.41326  0.032191819  0.048069841   0.13692737   0.21718903   0.65324833  0.092310338   0.16496277   0.91052144 
   28200    1004.4609   -13272.146   -13265.005    7544.8772    37.325429    51.355184     51.49158    140.17219  0.051679314  0.033479344   0.11350956   0.19866822    0.8160245    0.0673427    0.1431505    1.0265177 
   28300    1095.9698   -13274.659   -13266.868    8232.2343    37.671812    50.590982    51.977757    140.24055   0.07081954   0.01634472    0.1111732   0.19833746   0.91369313  0.050667131    0.1557679    1.1201282 
   28400    934.26126   -13273.608   -13266.966    7017.5819    37.100986    50.571814    51.026601     138.6994  0.038289264  0.037975801  0.077815592   0.15408066    1.0357222  0.065976603   0.14195456    1.2436533 
   28500    1021.7934   -13273.035   -13265.771    7675.0682    37.790645    53.516306    51.837419    143.14437  0.027417974  0.080488556   0.02451713   0.13242366   0.94363928   0.11236905  0.092425729    1.1484341 
   28600    890.72025   -13273.501   -13267.169    6690.5293    36.251677    53.625064    51.406518    141.28326  0.083528685  0.073525557  0.039508223   0.19656247   0.94960691    0.1091745   0.11510755     1.173889 
   28700      849.634   -13274.072   -13268.032    6381.9152    38.284197    50.495601    51.695892    140.47569  0.092620904  0.053390052 0.0081184503   0.15412941    1.2647677  0.088031005  0.079015522    1.4318142 
   28800    999.25222    -13272.58   -13265.476     7505.753    38.397423    52.637985    53.400553    144.43596  0.032005494   0.09271189   0.10452985   0.22924723    1.0276312   0.10375883   0.16631072    1.2977008 
   28900    953.92073   -13272.326   -13265.544    7165.2514    37.451552    52.310828     51.17084    140.93322 0.0087239629  0.076501356   0.18574499   0.27097031    1.0780943   0.12020666   0.24258512    1.4408861 
   29000    1359.7873   -13273.532   -13263.865    10213.865    37.616358     53.82377    51.702564    143.14269   0.05040348  0.089242429  0.090180167   0.22982608    1.2118231   0.10933044    0.1873288    1.5084824 
   29100    967.11158   -13273.392   -13266.516    7264.3328    38.309324    53.999195    50.201703    142.51022   0.02980368   0.13968821  0.015413363   0.18490525    1.0906064   0.15808105  0.080312465    1.3289999 
   29200    1029.1378   -13273.924   -13266.607    7730.2343    37.602245    52.559104    49.145353     139.3067  0.050306078   0.10669847  0.013159626   0.17016417    1.0298659   0.15052371  0.070075209    1.2504648 
   29300    1153.0174    -13271.95   -13263.753    8660.7404    38.906178    53.561235    49.742904    142.21032  0.069956038  0.024187032  0.027723525    0.1218666    1.2387006   0.05996859  0.067198733    1.3658679 
   29400    1106.5747   -13273.416   -13265.549    8311.8922    37.803705    54.687765    50.708177    143.19965   0.15675898  0.032056685   0.03340563   0.22222129    1.0377253  0.052134715   0.07794925    1.1678092 
   29500    1061.9295   -13274.147   -13266.598    7976.5454    38.970365    51.692427    50.245854    140.90865   0.21693209  0.027993286  0.051283639   0.29620902    1.2539696  0.044854388  0.064117358    1.3629414 
   29600     886.3793   -13271.008   -13264.706    6657.9228    38.751659    50.087047     51.45304    140.29175   0.21438121  0.095185199   0.19487772   0.50444412    1.5066145  0.099503998   0.19274779    1.7988663 
   29700    1198.8295   -13272.248   -13263.725    9004.8517    38.499086     49.36471    53.228941    141.09274   0.13060528  0.092122073  0.087725156    0.3104525    1.3280768   0.15884027   0.18550539    1.6724225 
   29800    1025.4396   -13273.632   -13266.342    7702.4558    38.258819    51.015616    52.637047    141.91148   0.14142743  0.053697314  0.016141571   0.21126631    1.2993404   0.10646696    0.1051723    1.5109796 
   29900    1118.1624   -13273.282   -13265.333    8398.9311    40.445238    50.435245    52.673782    143.55427   0.19680831  0.035173318  0.013715546   0.24569717    1.1967857  0.044509399  0.060605613    1.3019007 
   30000    1056.3825   -13272.485   -13264.975    7934.8797     39.22613    50.297232    49.639641      139.163  0.057523829  0.014063071  0.057536091   0.12912299    1.0338776  0.058018911  0.061696693    1.1535932 
   30100    979.28228   -13272.876   -13265.914    7355.7514    39.733551    50.330304    51.116578    141.18043  0.094879488  0.024790594   0.02710764   0.14677772   0.98996267  0.044552739  0.056173778    1.0906892 
   30200    743.28388   -13271.614    -13266.33    5583.0801    38.409652    52.183301    49.894206    140.48716   0.28921296  0.046360393  0.039907066   0.37548042    1.1475268  0.096954055   0.10995233    1.3544332 
   30300    1086.3645   -13273.035   -13265.312    8160.0855    39.373715    49.350102    47.720918    136.44473   0.23720501   0.12762487   0.12102803    0.4858579    1.1595705   0.10746848   0.13460408    1.4016431 
   30400    988.93004   -13272.737   -13265.707    7428.2193    39.917385    49.284723    50.716832    139.91894   0.18790585  0.060155744     0.231354    0.4794156       1.0463   0.15315105   0.27358766    1.4730387 
   30500    1022.7355   -13272.386   -13265.115    7682.1447    40.211425    51.840883    51.253181    143.30549   0.14052846  0.048313839   0.14710214   0.33594444    1.1176958   0.11269706   0.24847504    1.4788679 
   30600    1080.8913   -13272.491   -13264.807    8118.9742    39.223099     51.11785    53.293744    143.63469  0.066078976  0.019314845  0.087348208   0.17274203    1.2554229  0.077558599  0.089456733    1.4224382 
   30700    870.91209   -13273.404   -13267.213    6541.7428    36.986737    49.557727    52.729056    139.27352   0.03594795  0.047724857  0.057712848   0.14138565     1.243371   0.08408238   0.11290173    1.4403551 
   30800    1098.8742   -13273.044   -13265.232    8254.0508    38.845296    50.856431    51.351593    141.05332  0.077582391  0.044677399  0.069875067   0.19213486    1.3700232   0.11272536   0.11320181    1.5959503 
   30900    949.11755   -13272.428    -13265.68     7129.173     38.30979    51.257352    51.227241    140.79438  0.096906327   0.22729017   0.14915114   0.47334764    1.3482751    0.2096315   0.25535411    1.8132607 
   31000    1055.2175   -13272.608   -13265.107    7926.1286    39.445722    50.681059    54.748332    144.87511  0.047176849   0.05240277  0.083504483    0.1830841    1.4777522   0.12044787   0.24072426    1.8389243 
   31100    974.49962   -13272.599   -13265.671    7319.8271    39.268459    52.655587    53.969293    145.89334  0.045446289  0.040389197  0.068139462   0.15397495     1.493055   0.12001662   0.21499848    1.8280702 
   31200    1277.4524   -13273.402   -13264.321    9595.4173    40.096865    52.189281    51.647111    143.93326   0.18289123  0.096984045  0.093225829    0.3731011    1.2984326   0.14577732    0.1470127    1.5912226 
   31300    841.29274   -13272.811    -13266.83    6319.2609    40.270364    51.116266    51.731062    143.11769   0.23816931  0.098483512   0.20730668    0.5439595    1.2762497   0.12360856   0.24785875     1.647717 
   31400    1142.8782   -13273.097   -13264.972    8584.5809    40.996561    51.540438    53.655048    146.19205  0.089267157   0.11925517   0.21362176   0.42214409    1.1561706   0.14073852   0.22957868    1.5264878 
   31500    886.49158   -13272.916   -13266.614    6658.7661    40.454046    51.058428    53.989993    145.50247  0.021915392  0.079987429   0.27048037   0.37238319    1.5264984   0.12300089   0.26169937    1.9111987 
   31600    996.77785   -13274.025   -13266.939    7487.1671    40.138826    51.936874    52.250761    144.32646   0.13783464  0.056044407   0.14879724   0.34267628    1.4611046   0.07613713   0.20943163    1.7466734 
   31700    1005.2564     -13272.3   -13265.153    7550.8525    41.436156    52.108393    52.692622    146.23717   0.25967776  0.029222651  0.053927793    0.3428282    1.4876697  0.046427661  0.096036729    1.6301341 
   31800    1104.3146   -13273.028   -13265.177    8294.9153    41.174558    52.558894    52.071521    145.80497     0.146663   0.02332546  0.018427175   0.18841563    1.3890949  0.055960521  0.058882635     1.503938 
   31900      959.757   -13273.468   -13266.645    7209.0898    40.135872    50.961882    53.490225    144.58798  0.092475989  0.049371864  0.079927094   0.22177495    1.3257558  0.061840931   0.11206414    1.4996609 
   32000    948.51121   -13271.644     -13264.9    7124.6185    42.241178    50.748602    53.064731    146.05451   0.11885737  0.027808162   0.09202516   0.23869069    1.3483666  0.046716755    0.1750382    1.5701216 
   32100    1015.4089   -13271.929    -13264.71    7627.1117    41.005896    51.663382    53.659467    146.32874   0.15672678 0.0097212301  0.090206636   0.25665464     1.302555   0.04234866   0.16363246    1.5085361 
   32200    833.73118   -13272.075   -13266.148    6262.4633    40.980484      50.1625    53.106816     144.2498   0.30784547  0.034507074   0.10084428   0.44319682    1.3840913  0.066958833   0.16056807    1.6116182 
   32300    1181.4701   -13271.774   -13263.375     8874.459    43.190935     48.62181    53.155281    144.96803   0.18989384  0.024965595   0.10266755   0.31752699    1.2409077   0.08613114    0.1559019    1.4829407 
   32400    887.60032   -13272.308   -13265.997    6667.0943    43.490353    49.988696    53.050606    146.52966   0.11804207   0.11087893   0.17906136   0.40798236   0.93532604   0.14447936   0.21761402    1.2974194 
   32500    1187.2118   -13273.535   -13265.095    8917.5868       45.331    48.925574    52.492141    146.74871   0.11773177  0.069557707  0.074668356   0.26195784    1.0443439   0.12852319    0.1244462    1.2973133 
   32600    735.94693   -13272.219   -13266.987    5527.9696    44.094892    50.759347     53.07849    147.93273   0.13112702  0.068956841  0.076096643   0.27618051    1.2587647  0.093452753   0.12474803    1.4769655 
   32700    996.58703   -13273.811   -13266.726    7485.7338    42.792328    51.792573    53.995097       148.58   0.10419583  0.014972313 0.0057403563    0.1249085     1.142094  0.041473354  0.031002308    1.2145697 
   32800    1069.8114   -13271.793   -13264.187    8035.7495    44.218646    52.998635    53.189171    150.40645   0.15528308  0.040934269  0.061979782   0.25819713    0.8654547   0.10567285  0.077658179    1.0487857 
   32900    882.17704   -13272.075   -13265.804     6626.358    43.108436     52.54989    54.560592    150.21892   0.11566437  0.091904315  0.041203455   0.24877214    0.8413393  0.076634037  0.069749172   0.98772251 
   33000    946.56654   -13273.303   -13266.573    7110.0114    42.576684    54.603367    57.644965    154.82502   0.15243437  0.027724055  0.014181143   0.19433957   0.88844762  0.045150528   0.02161995    0.9552181 
   33100    955.14002   -13273.228   -13266.437      7174.41    40.299195    54.546179    56.482209    151.32758   0.12818319  0.026079698  0.044676894   0.19893978    1.0782313  0.049607222  0.062834986    1.1906735 
   33200    1139.9432   -13272.591   -13264.487     8562.535    41.093061    53.321748    57.553394     151.9682  0.051754899  0.060191762  0.020318973   0.13226563   0.99708491  0.084119917  0.052039643    1.1332445 
   33300    1009.6815   -13274.486   -13267.308    7584.0913    39.425859    53.117591    56.320147     148.8636  0.080442948  0.021281229   0.03132969   0.13305387    1.1160768   0.05491095  0.077753606    1.2487414 
   33400    961.80012   -13274.036   -13267.198    7224.4365    38.079335    53.178223    58.428369    149.68593   0.18365672  0.025364751 0.0057085339      0.21473    1.3250605  0.044797283  0.069093742    1.4389515 
   33500    1081.1517   -13272.335   -13264.649    8120.9306    38.158084    51.422984     56.77387    146.35494   0.19857616  0.018224994  0.029176347   0.24597751    1.1530888  0.032876435  0.069566181    1.2555314 
   33600    1097.5451   -13273.195   -13265.393    8244.0669    36.833135    56.446979    55.899788     149.1799   0.13655319  0.015992327 0.0066951292   0.15924065    1.0160795  0.037703557    0.0255713    1.0793543 
   33700    920.70729   -13273.416    -13266.87     6915.773    35.213443    56.985727    54.186748    146.38592  0.041926396 0.0064755152  0.023271822  0.071673733    0.6747373  0.055601223  0.041085831   0.77142435 
   33800    1170.9086   -13273.185    -13264.86    8795.1275    34.179191    56.205254    54.073086    144.45753  0.029211304   0.06527413  0.070175071    0.1646605   0.56392978   0.09983518  0.086523659   0.75028862 
   33900    905.74683   -13271.035   -13264.596    6803.3994    34.204926    57.785553    53.367501    145.35798  0.072168263   0.11030187    0.1594353   0.34190544   0.55573626   0.16496639    0.1579965   0.87869915 
   34000    830.35229   -13273.546   -13267.643    6237.0832    35.200561    57.428341     50.55788    143.18678  0.065004232   0.15311378   0.06453121   0.28264922    0.6591545   0.16919259  0.071154826   0.89950192 
   34100     1059.499   -13273.447   -13265.915    7958.2892    35.600963    55.257227    50.907379    141.76557  0.086235521  0.049857205  0.033053124   0.16914585   0.67337616  0.069474087  0.087253236   0.83010349 
   34200    983.91919   -13271.512   -13264.517     7390.581    33.834657    58.019093    50.359958    142.21371   0.22240419  0.074919281   0.12661463    0.4239381   0.61526354   0.10599517   0.10643925   0.82769796 
   34300    1277.4883   -13271.404   -13262.322    9595.6869    34.002326     61.00278    51.863418    146.86852   0.21283383  0.058216895  0.067403129   0.33845386   0.65985059  0.083691938  0.088824469   0.83236699 
   34400     948.8733   -13271.188   -13264.442    7127.3383    36.901048     62.08386    52.812641    151.79755   0.17358951  0.021034677  0.078515886   0.27314008   0.69227242  0.063198197   0.11602792   0.87149854 
   34500      913.822   -13272.751   -13266.254     6864.055    38.080746    61.892993    52.183895    152.15763  0.054186138    0.0406265  0.025884142   0.12069678   0.69070307  0.067153172  0.042516578   0.80037282 
   34600    845.28011   -13271.989    -13265.98    6349.2115    40.349009    64.480961    51.299146    156.12912  0.033883124  0.066241648  0.016856341   0.11698111   0.82168417   0.10907537  0.069632268    1.0003918 
   34700    1079.3507   -13272.936   -13265.262    8107.4026    40.998415    62.652769    50.876623    154.52781  0.015612159  0.032472724  0.099408169   0.14749305   0.79238202   0.06677353   0.13043836   0.98959391 
   34800    970.73548   -13272.251    -13265.35    7291.5532    41.824841    63.976333      47.3764    153.17757    0.0171931  0.078563982  0.062877093   0.15863417   0.70920607   0.12945106   0.14855464   0.98721178 
   34900    1095.5167   -13270.949   -13263.161    8228.8314    42.161755    61.542654    46.030499    149.73491  0.071350214  0.039760679    0.0529299   0.16404079   0.42180097  0.071140259  0.092142636   0.58508387 
   35000    1060.2219   -13272.824   -13265.287    7963.7191    41.965774     58.45018     47.20042    147.61637  0.059653089  0.024160334  0.067448629   0.15126205   0.33615078  0.066218912   0.10712352   0.50949321 
   35100    956.20276   -13271.832   -13265.034    7182.3926     41.17945    57.401273    49.082309    147.66303   0.12584058   0.04990822  0.044878343   0.22062714   0.55430153   0.10499883  0.088707177   0.74800754 
   35200    1120.0936   -13272.525   -13264.562    8413.4374    40.524427    59.440012     49.57197    149.53641  0.088887665   0.02795571   0.07699513   0.19383851   0.52628194  0.077672113  0.075218915   0.67917296 
   35300    1025.4082   -13273.609   -13266.319    7702.2203    41.138909    63.886327    49.018936    154.04417   0.13024984  0.016786434  0.018814079   0.16585035   0.46043511  0.057264552  0.071218188   0.58891785 
   35400    994.43925   -13274.002   -13266.932     7469.601    40.998478    62.624878    48.216816    151.84017  0.075505015  0.015070688  0.020351898    0.1109276   0.63595987  0.050716635  0.071059881   0.75773639 
   35500    1050.5108   -13271.845   -13264.376    7890.7754    41.823671    61.311498    50.352444    153.48761  0.098976182  0.021338205  0.039126056   0.15944044   0.84191868  0.039852792  0.048167415   0.92993889 
   35600    957.12407   -13272.574    -13265.77    7189.3129    42.952399    60.597574    50.710244    154.26022   0.14917217   0.05175794  0.024408872   0.22533898   0.70028234  0.077479769  0.048175749   0.82593786 
[...]
 1057200    1103.1851   -13271.743     -13263.9    8286.4316    1028.3534    2021.4053    1201.6922    4251.4509    11.599583    22.803705    10.510194    44.913482    11.694889    20.826261    7.8952196    40.416369 
 1057300      1053.51   -13273.365   -13265.876    7913.3034     1025.842     2019.277    1199.6529     4244.772    12.448589    25.144957    10.561562    48.155108     12.49712    20.490835    7.8113153     40.79927 
 1057400    935.09414   -13272.938   -13266.291    7023.8379    1032.0553    2021.4578    1208.1182    4261.6313    12.482417    27.707844    7.3805046    47.570765    12.089273    21.409433    7.9356231    41.434329 
 1057500    1018.0459   -13273.564   -13266.327    7646.9196    1028.4867    2048.3996    1208.9503    4285.8366    12.494812    29.892508    7.8845671    50.271887    12.230933    21.879516     8.705247    42.815696 
 1057600     1152.214   -13273.312   -13265.121    8654.7054    1028.2926    2047.2368    1208.6909    4284.2203    12.410333    28.622633    8.3187725    49.351738     12.04725    21.429347    8.2398702    41.716467 
 1057700    1084.7604   -13274.004   -13266.292    8148.0368    1040.5524    2035.2305    1204.9465    4280.7294    12.732616    27.666231    8.6048711    49.003718    12.061157    20.261175    8.6255665    40.947898 
 1057800    805.73676   -13273.368    -13267.64    6052.1868    1038.9594    2036.7965    1202.7251     4278.481    13.224336    26.775113    8.9758095    48.975259     12.50717    19.709168     8.832757    41.049095 
 1057900    1124.1934   -13273.164   -13265.172    8444.2327      1031.66    2024.1009    1205.1072     4260.868    13.878876     27.93104     8.843159    50.653075    13.534203    21.159378    8.1880099    42.881591 
 1058000    878.25851   -13272.821   -13266.577    6596.9245    1036.4343    2024.6722    1194.6976    4255.8041    14.150275    28.704529    8.7101462     51.56495    13.429121    21.921763    8.1718386    43.522723 
 1058100    954.87883   -13271.664   -13264.876    7172.4481    1034.1239    2015.1172    1193.9456    4243.1867    14.413577    28.876123    9.3263759    52.616075    13.874997     21.38142    8.6911935     43.94761 
 1058200    875.48406   -13273.271   -13267.046    6576.0846    1030.1686    2009.4886    1205.8079    4245.4651    13.638705    29.777935    9.3320718    52.748712    13.296504    20.633824    8.1597856    42.090114 
 1058300     876.1547   -13273.101   -13266.872     6581.122     1032.376    1997.2713    1213.0748     4242.722    14.188145    29.268171    8.6678287    52.124144    13.548005    20.940815    8.1925832    42.681403 
 1058400    1012.5662    -13272.12   -13264.921    7605.7592    1029.7092    2020.2872    1203.5019    4253.4983    13.662585    28.405402    8.6892522    50.757239    13.006527    21.391764    8.8109261    43.209217 
 1058500    1012.7713    -13272.34    -13265.14    7607.2999    1031.8155    2010.0244    1205.6947    4247.5345    13.164167    28.593944    8.1478526    49.905964    12.907494    20.778723    8.8415752    42.527792 
 1058600    1011.1805   -13274.251   -13267.062    7595.3511    1037.7113    2012.3259    1208.9524    4258.9896    13.746647    26.919544    8.9604074    49.626599    13.215442    20.619359    9.1043894     42.93919 
 1058700    1092.5134   -13272.208   -13264.441     8206.272     1047.591    2003.1465    1214.1931    4264.9306    13.938602    27.326342    8.9159074    50.180852    13.406218    20.398833    8.7531532    42.558205 
 1058800     998.1692   -13271.759   -13264.662    7497.6181     1040.115    1983.8552    1210.4834    4234.4536    13.868649    27.612064    8.5489482    50.029662    13.416068    20.502639    8.6899465    42.608653 
 1058900    690.46837   -13271.997   -13267.088    5186.3633     1037.015    2004.1854     1222.353    4263.5534    12.983189    27.431297    8.9023021    49.316788    13.585833    20.057633     9.134552    42.778018 
 1059000    1148.9409   -13274.342   -13266.174    8630.1197    1038.8224     2016.413    1220.3062    4275.5416    13.505985    28.113102    8.8424907    50.461578    13.678863    20.606445    9.1171426     43.40245 
 1059100    943.85535   -13271.939   -13265.229    7089.6466    1040.0284    2008.7608     1217.893    4266.6822    12.906285    27.627513    9.2372481    49.771046    13.486915    20.605133     10.00264    44.094687 
 1059200     1247.766   -13272.332   -13263.461    9372.4322    1048.3238    2001.3639    1215.5099    4265.1977    13.634199    26.516391    9.1521052    49.302695    13.761656    19.590775    9.8504793    43.202911 
 1059300    953.72354   -13273.012   -13266.231    7163.7702    1054.3321     2006.551    1223.4896    4284.3727    12.859718    27.608991    7.7552964    48.224005     13.77116    19.612433    9.1791338    42.562727 
 1059400    1026.2395   -13273.892   -13266.596    7708.4643    1060.3433    2007.9044    1219.2728    4287.5205    12.525073    27.686287    8.7012974    48.912658    13.527615    19.112307    8.9491135    41.589035 
 1059500    845.31186   -13273.551   -13267.541      6349.45    1053.7563    2011.7069    1221.9773    4287.4404    13.125843    27.670191    8.8128187    49.608853    13.155137    19.779054    8.7259742    41.660164 
 1059600    1116.8897    -13273.03    -13265.09    8389.3713    1054.6046    1997.5555    1227.3549     4279.515    13.653086    28.171099    8.5253002    50.349485    12.574659    20.512179    8.0377532    41.124591 
 1059700     1068.631   -13273.821   -13266.224    8026.8824    1043.3148    2012.5527    1212.8556     4268.723    13.231059    26.115313    8.7707289    48.117101    12.826056    20.022778     7.624003    40.472837 
 1059800     1147.701   -13279.825   -13271.666    8620.8069    1050.9081    2008.6329    1211.9465    4271.4875     12.41553    25.610923    9.5978651    47.624318    12.713858    21.301676    8.1280985    42.143633 
 1059900    4029.3266   -13317.126    -13288.48    30265.762    1047.5197    2023.7575    1204.8535    4276.1307    12.471807    27.112921    8.5864955    48.171224    12.188861    19.702563    8.7595672    40.650992 
 1060000    3275.4597   -13245.206    -13221.92    24603.189    1101.6534    2049.4546    1208.2306    4359.3385    20.854925    58.796491    31.076331    110.72775    10.269183    21.902514    8.1140481    40.285746 
 1060100    617.98311   -13270.449   -13266.056    4641.8997    1109.6678     2035.773     1222.047    4367.4879    22.520101    55.893788    27.470604    105.88449    10.394601    21.387027    7.9892748    39.770903 
 1060200    657.32899   -13273.407   -13268.734    4937.4412    1113.1132    2014.1055    1223.0654    4350.2841    23.217719    56.916654    26.914042    107.04842    10.599209    21.241889    7.9130808    39.754179 
 1060300    1516.9505   -13271.912   -13261.128    11394.377    1112.2796    2018.1284    1223.6879    4354.0958     22.78363    57.103514    28.409144    108.29629    10.623983    22.814619     8.243259    41.681861 
 1060400    772.77729   -13274.517   -13269.023    5804.6161    1113.9112    2022.3404    1219.4762    4355.7277    22.553627    56.936791    27.810263    107.30068    10.831626    23.086381    8.3655244    42.283532 
 1060500    898.90645   -13274.295   -13267.904    6752.0188    1120.0389    2016.0753    1216.1275    4352.2417    23.411897    55.317146    26.873471    105.60251    11.297577    23.026393    8.2448166    42.568787 
 1060600    1399.1424   -13272.402   -13262.455    10509.476    1113.4183    2045.6328    1196.0296    4355.0808    22.410719    56.007916    25.982676    104.40131    10.626757    22.827274    9.2299783    42.684008 
 1060700    1068.1453   -13272.271   -13264.678    8023.2344    1111.0984    2064.1682    1198.5037    4373.7703    21.684909      55.1801    27.728971    104.59398    10.115239    24.028814    8.9974981    43.141552 
 1060800    605.28932   -13276.198   -13271.895     4546.552    1114.1588    2053.4338    1195.0028    4362.5954    21.372266    57.386578    27.100871    105.85972     10.36167    23.019832    8.5453498    41.926852 
 1060900    1198.1833   -13274.641   -13266.122    8999.9977    1114.1402    2067.1205    1200.1501    4381.4107     21.91942    57.876579     27.42384    107.21984    10.947769    22.556548    8.3931977    41.897514 
 1061000    1439.3872   -13277.363    -13267.13     10811.77    1124.7966    2048.5617    1204.9438    4378.3021    21.860729    61.417278     26.43779     109.7158    11.550776    23.056503    8.1253864    42.732665 
 1061100    1432.1441   -13269.533   -13259.352    10757.364    1131.8192     2051.281    1206.4031    4389.5033    21.732392     62.22831    25.584191    109.54489    12.466157      22.8611    8.9575707    44.284827 
 1061200    1864.0276   -13285.967   -13272.715    14001.401    1130.6736    2052.4359    1215.0978    4398.2073    22.089362    62.773862      25.4464    110.30962    12.273643    23.105277    8.7887097    44.167629 
 1061300    2494.5698   -13317.223   -13299.488    18737.636    1164.8613    2050.1276    1216.8741     4431.863    23.232143     64.33272    25.313524    112.87839    12.761081    22.929383    9.1561253     44.84659 
 1061400    1002.6435   -13275.298    -13268.17     7531.226    1181.2127    2039.3327    1225.1918    4445.7371     33.26091    49.113561    25.251637    107.62611    12.071163    22.308761    9.2689042    43.648828 
 1061500    717.37217   -13285.085   -13279.985    5388.4477    1184.0272    2037.6276    1212.4531    4434.1079     34.78594     45.76427     26.69603    107.24624    11.809714    21.520204    9.0171285    42.347047 
 1061600    2106.5095   -13257.632   -13242.656    15822.772    1196.2013    2052.2872    1205.0739    4453.5625    36.104909    44.549558    26.562382    107.21685    12.221054    21.262401    11.228948    44.712403 
 1061700    3068.7965   -13251.951   -13230.134    23050.866    1205.5573    2029.1118    1194.9795    4429.6486    46.944107    52.191999    42.938445    142.07455    12.229822    20.376904    11.715872    44.322598 
 1061800    961.97579   -13272.376   -13265.537    7225.7559    1198.7079    2024.9005    1187.9445    4411.5529    40.862845    50.546636    46.570004    137.97949    12.250919    19.765443    11.729335    43.745697 
 1061900    943.72662   -13274.943   -13268.234    7088.6797    1185.9356    2021.8038    1179.3661    4387.1055    44.049913    50.687121    45.904704    140.64174      12.6492    20.137059    11.921244    44.707503 
 1062000     1409.787   -13274.444   -13264.422    10589.431    1195.1979     2023.195    1179.4879    4397.8808    46.105675    52.070987    46.017184    144.19385    12.711494    19.747801    11.462327    43.921622 
 1062100    811.41208   -13276.567   -13270.799    6094.8162    1195.5346    2015.1949    1171.9048    4382.6343     47.05784    54.052658    51.137042    152.24754    12.659951    19.765057    10.779831    43.204839 
 1062200    878.92437   -13277.014   -13270.765     6601.926    1208.0718    2003.6445    1159.0036    4370.7199    46.889403    53.843925    49.470881    150.20421    12.041815    19.979703    10.891262    42.912779 
 1062300    2579.9974   -13262.175   -13243.833    19379.315    1199.1516    2000.2292    1155.9204    4355.3012    45.442185    54.238864    48.173248     147.8543    11.359738    19.976247    11.512492    42.848478 
 1062400    537.04798    -13276.68   -13272.862     4033.966    1217.1543    1995.2208    1164.1693    4376.5445    48.492396    54.190812    49.038786    151.72199    10.884833    21.690514    12.894532    45.469878 
 1062500     750.5327   -13276.975   -13271.639    5637.5287    1207.3312     1993.397      1158.38    4359.1082    48.196014    55.229704    49.213307    152.63902    10.960121    21.479888    13.684004    46.124013 
 1062600    1294.0322   -13273.166   -13263.966    9719.9544    1207.5443    1999.7374    1168.6654    4375.9471     42.26581    56.900876    52.732549    151.89923    12.229151    21.419459    13.821564    47.470174 
 1062700    802.35888    -13275.69   -13269.986    6026.8143    1200.8554    2023.5545      1162.62    4387.0299    39.268771     58.08623    54.227841    151.58284    13.427276    21.150464    13.548349    48.126088 
 1062800    860.27823   -13275.716     -13269.6     6461.868     1211.915    2014.5549    1159.5466    4386.0165      39.3822    59.502379    52.069562    150.95414     13.43723    20.938716    13.901875     48.27782 
 1062900    922.99507   -13273.688   -13267.126    6932.9573    1193.6778    2001.1718    1168.2372    4363.0867    39.634955    57.574157      54.0266    151.23571    13.660017    21.172195    14.445082    49.277293 
 1063000    902.88127   -13275.449    -13269.03    6781.8751    1193.6589    2000.1513    1181.9003    4375.7105    40.292879    56.988306     56.16834    153.44952    13.211074    20.863817    14.100374    48.175265 
 1063100    1025.1405   -13278.867   -13271.579    7700.2098    1193.3742    2016.6053    1177.6974    4387.6769    39.763531    57.229524    56.565388    153.55844    13.799361    20.977749    13.618424    48.395534 
 1063200    19357.991   -13284.577   -13146.955    145405.03    1201.4144    2025.5053    1169.8884    4396.8082    39.989205    54.904021    56.875631    151.76886    14.875953    21.200973    13.479974      49.5569 
 1063300    11226.527   -13474.095   -13394.282    84326.598    1214.7105    2049.4133    1163.4702     4427.594    41.636779    59.232464    54.410853     155.2801    14.599063    21.900924    13.219734     49.71972 
 1063400    694.86519    -13271.82    -13266.88    5219.3895    1193.5951    2022.1782    1176.5828     4392.356    42.680841    82.187394    46.583049    171.45128    14.761538     22.49153    13.692084    50.945153 
 1063500    2933.0679   -13270.795   -13249.943    22031.358    1199.1186    2045.7149    1180.7467    4425.5803    43.391221    76.529668    43.289414     163.2103    14.335683    22.357735    13.902613    50.596031 
 1063600     712.3549   -13281.001   -13275.937    5350.7612    1203.0687    2051.8536    1170.4748     4425.397     44.51345    74.180469    44.921856    163.61577    14.268665    23.806303    13.851964    51.926931 
 1063700    8703.8291   -13494.933   -13433.054    65377.679    1198.8485    2029.7158    1165.7324    4394.2967    43.949608    68.534362    42.643116    155.12709    13.986065    23.817899    13.931679    51.735642 
 1063800    8685.3382     -13234.5   -13172.753    65238.787    1198.4217    2096.1198    1198.8301    4493.3716    47.516897    86.186851    45.244378    178.94813    13.679359    25.724008    14.289935    53.693302 
 1063900    1091.0679   -13265.183   -13257.426    8195.4143    1203.9514    2088.3667    1204.7056    4497.0237    43.271855    102.53002    49.200425     195.0023    13.397517    24.922708    15.492445    53.812669 
 1064000    1012.6364    -13275.79   -13268.591    7606.2863    1204.3832    2107.8216     1207.843    4520.0478    39.282032    99.389956    47.968332    186.64032      13.6049    25.422506    15.888379    54.915785 
 1064100    1274.0978   -13287.732   -13278.674    9570.2196    1202.2259    2111.5383    1202.5093    4516.2735    36.351133    98.444798    45.951672     180.7476    13.032708     25.00065    16.158818    54.192176 
 1064200    2854.5597   -13259.341   -13239.047    21441.654    1202.5935    2106.6097    1197.8655    4507.0687    38.313664    114.84211    55.714895    208.87066       13.517    23.934864    15.401492    52.853357 
 1064300    929.71361    -13271.65   -13265.041    6983.4228     1188.484    2110.1144    1219.4397    4518.0381     40.39269    116.76898    57.426241    214.58792    13.508632    23.906997    15.808148    53.223777 
 1064400    576.73954   -13277.768   -13273.667     4332.104    1188.1591    2110.2654    1234.0254    4532.4499    41.197712    118.69588     55.01913    214.91272    13.488783     24.03318    15.749886     53.27185 
 1064500    1163.0208   -13277.873   -13269.605    8735.8791    1192.5659    2107.3937    1245.4814     4545.441    43.244143    121.53097     55.18838    219.96349    14.149107    24.904095    16.050456    55.103658 
 1064600    2597.4661   -13258.299   -13239.833    19510.529    1203.3069    2126.5637    1235.2223    4565.0929    45.870195    129.48067    54.029825    229.38069    14.957137    23.220954    16.307769     54.48586 
 1064700    574.82221   -13277.303   -13273.216    4317.7022    1207.5941    2091.2682    1238.9626    4537.8249    44.680613    122.05005    57.254205    223.98487    15.312908    23.457699    16.883173    55.653781 
 1064800    355.07006   -13269.539   -13267.015    2667.0625     1207.098    2089.6162    1242.9696    4539.6838    34.350232    131.37278    55.882034    221.60504    15.514942    23.373855    16.834083     55.72288 
 1064900    733.22829   -13275.038   -13269.825    5507.5489     1213.584    2099.9198    1249.4351     4562.939    36.160233     131.0926    54.901386    222.15422    15.014165    23.380264    16.633069    55.027498 
 1065000    1793.5532   -13275.586   -13262.835    13472.042    1206.3585    2107.9545     1237.264     4551.577    36.655729    130.98584    56.849558    224.49112    14.546913    23.873522    15.582589    54.003024 
 1065100     916.0535   -13278.275   -13271.763    6880.8167      1208.21    2111.0362    1246.0602    4565.3063    36.101451     131.4476    55.048038    222.59709    14.953615    23.369636    16.522514    54.845765 
 1065200    785.00111    -13280.36    -13274.78    5896.4337    1207.9385    2107.7269    1250.2849    4565.9503    35.826928     133.9934    53.462968     223.2833    15.468696    23.682483     17.25979    56.410969 
 1065300    1233.8852   -13280.037   -13271.265    9268.1682    1218.7483    2101.6177    1247.4782    4567.8442    35.924403    130.46231    54.718399    221.10511    14.658723     24.03574    16.957565    55.652028 
 1065400    813.17114   -13280.307   -13274.526    6108.0292    1222.0279    2100.9416    1247.1144    4570.0839    35.831792    128.99508    55.447597    220.27447    14.102301    24.678039    16.855716    55.636056 
 1065500    898.70581   -13279.208   -13272.819    6750.5117    1225.3649    2103.3787    1254.0968    4582.8404     35.35141    129.51485    53.526284    218.39255    14.627724     24.35335    17.113765    56.094839 
 1065600     1084.561   -13278.312   -13270.602    8146.5385    1217.8741    2117.2586    1247.6491    4582.7818     33.85517    128.08529    55.067445    217.00791    16.121456    22.966483    17.234695    56.322634 
 1065700    921.91441   -13280.116   -13273.562    6924.8401    1219.9724    2084.8882    1260.6061    4565.4667     33.93792    129.52629    54.789676    218.25389    16.198004     22.26462    17.343285    55.805909 
 1065800    846.65985   -13280.302   -13274.283    6359.5753    1226.9669     2076.957    1257.0281     4560.952    34.900322    132.52837    53.644912     221.0736    16.113349    22.457229    16.548658    55.119236 
 1065900     870.5809   -13278.271   -13272.081    6539.2552    1221.1437    2085.7693    1264.4982    4571.4113    34.690814    136.27044     53.02855    223.98981     15.24128    23.186318    16.762509    55.190107 
 1066000    1106.5658   -13278.856    -13270.99    8311.8249    1218.0169    2084.5368    1252.4653     4555.019    34.423073    137.86343    55.172542    227.45904    15.726886    23.677111    16.280256    55.684253 
 1066100    903.04459   -13280.414   -13273.994    6783.1019    1229.6424    2076.7609    1254.9741    4561.3773    33.662498    133.04989    54.612933    221.32532    15.914238    22.211919    16.462599    54.588756 
 1066200    887.64506    -13279.76   -13273.449    6667.4304    1231.0698    2075.0199     1257.105    4563.1947    32.767242    130.29513    55.368625    218.43099    16.813114    21.385267    15.691844    53.890225 
 1066300   