56
Lattice="8.14999996437687 0.0 0.0 0.0 10.06999995598467 0.0 0.0 0.0 12.3179999461588" Properties=species:S:1:pos:R:3:forces:R:3 energy=-13281.865434556272 stress="-0.6281385806594021 0.28450117447196344 -0.1418092720739259 0.28450117447196344 -0.43852016602943267 0.488241674287718 -0.1418092720739259 0.488241674287718 0.1103287905139465" pbc="T T T"
Li 4.1228141136 7.5992474826 5.8963981517 -0.03292606078723502 0.031531751564755475 -0.0496924813491221
Li 3.8921927788 7.6078537957 11.9495287398 0.2329301156817691 0.07163478960375042 0.041672696494321815
Li 8.0139406203 7.5565743696 3.3768451631 0.02758562249475436 0.07939977813926669 -0.10941894973797991
Li 8.1551474529 7.5644619692 9.6110398817 -0.11072198479966651 0.02183894990916699 -0.22661651485801704
Li 4.2578072212 2.4621462043 0.3684712602 -0.2329301156817691 -0.07163478960375042 -0.041672696494321815
Li 4.0271858864 2.4707525174 6.4216018483 0.03292606078723502 -0.031531751564755475 0.0496924813491221
Li -0.0051474529 2.5055380308 2.7069601183 0.11072198479966651 -0.02183894990916699 0.22661651485801704
Li 0.1360593797 2.5134256304 8.9411548369 -0.02758562249475436 -0.07939977813926669 0.10941894973797991
Li 1.4557457188 9.8557465251 5.5843146594 -0.15812181349585663 0.2372045746203128 -0.0043508207012352695
Li 1.3892029492 10.0233339242 11.5882688056 -0.03916329984829556 -0.017166227097191466 0.10449580148202595
Li 5.5232629302 5.1962330345 3.7750415213 -0.06339903208679212 -0.07559403129966827 -0.02434397567988766
Li 5.4522697588 5.1189705543 9.675657136 0.056842462018112265 0.07287868929365565 0.11770895753078978
Li 6.7791481806 4.9843352957 0.4756179871 -0.06375795808247375 -0.012325354141107218 0.10914281326279218
Li 6.7561734018 4.859729552 6.6421817047 0.051731366124018435 0.18707886239531427 0.12752491502587077
Li 2.6229845313 0.1069831381 2.5635124522 0.13191147406048692 -0.006233639516691237 -0.15786753139719678
Li 2.6117223674 0.0001207712 8.6299655277 0.05499769552884604 0.10844938675107778 0.05174627852211982
Li 6.7607970508 0.0466660758 0.7297311944 0.03916329984829556 0.017166227097191466 -0.10449580148202595
Li 6.6942542812 0.2142534749 6.7336853406 0.15812181349585663 -0.2372045746203128 0.0043508207012352695
Li 2.6977302412 4.9510294457 2.642342864 -0.056842462018112265 -0.07287868929365565 -0.11770895753078978
Li 2.6267370698 4.8737669655 8.5429584787 0.06339903208679212 0.07559403129966827 0.02434397567988766
Li 1.3938265982 5.210270448 5.6758182953 -0.051731366124018435 -0.18707886239531427 -0.12752491502587077
Li 1.3708518194 5.0856647043 11.8423820129 0.06375795808247375 0.012325354141107218 -0.10914281326279218
Li 5.5382776326 10.0698792288 3.6880344723 -0.05499769552884604 -0.10844938675107778 -0.05174627852211982
Li 5.5270154687 9.9630168619 9.7544875478 -0.13191147406048692 0.006233639516691237 0.15786753139719678
B 1.0535965829 7.5168829562 0.7598472407 -0.25183595115058083 0.6811222406189108 -0.23989549114667666
B 1.0509690098 7.4957455436 6.7537711462 -1.1896378440895896 0.47745693488017427 2.4737400737245903
B 4.9744163965 7.4637805507 2.3254072322 0.38156147333765433 2.1047806052238553 0.5717727106651957
B 4.9940747265 7.5482029401 8.4077355318 0.5588408332978616 0.41850745385446114 1.0347178253102254
B 7.0990309902 2.5742544564 5.5642288538 1.1896378440895896 -0.47745693488017427 -2.4737400737245903
B 7.0964034171 2.5531170438 11.5581527593 0.25183595115058083 -0.6811222406189108 0.23989549114667666
B 3.1559252735 2.5217970599 3.9102644682 -0.5588408332978616 -0.41850745385446114 -1.0347178253102254
B 3.1755836035 2.6062194493 9.9925927678 -0.38156147333765433 -2.1047806052238553 -0.5717727106651957
S 1.618454878 7.5655015765 5.1795239135 0.9110953306012998 -0.16678720234432207 -1.9242652548756476
S 1.6407809885 7.5592846306 11.2930963906 -0.013220355137502441 -0.21170797341131287 0.38939922409149286
S 5.7191677821 7.5344521879 4.0568283196 -0.15617831664674672 0.06954808231080481 -0.20176474631174596
S 5.7397927979 7.5680993814 10.1566414139 -0.22221478631498734 -0.1641551640794275 -0.28208060849299954
S 6.5092190115 2.5107153694 1.0249036094 0.013220355137502441 0.21170797341131287 -0.38939922409149286
S 6.531545122 2.5044984235 7.1384760865 -0.9110953306012998 0.16678720234432207 1.9242652548756476
S 2.4102072021 2.5019006186 2.1613585861 0.22221478631498734 0.1641551640794275 0.28208060849299954
S 2.4308322179 2.5355478121 8.2611716804 0.15617831664674672 -0.06954808231080481 0.20176474631174596
S 0.7079804373 9.1728584968 1.545332566 0.04798012667058369 -0.47726050260173536 -0.022085261588151942
S 0.6005931488 9.115418912 7.6738133543 0.15345603266230762 -0.4865905216069608 -0.17276861664485021
S 4.6625113652 6.0132437241 1.5366885554 -0.3287299321881906 -1.3571323569024791 -0.7606914544538466
S 4.7183047154 6.0159780793 7.6106716475 -0.2591831354289462 -0.6848997053241789 -0.44926016117357526
S 7.5114857748 4.0942826654 4.5928077462 -0.033114265535687 -0.09446027178041767 0.130610238770985
S 7.5336262998 4.080426116 10.7049126056 -0.06501574172923198 0.1679588540365292 -0.08479549514884731
S 3.434153396 0.9121033134 4.6428642553 0.22026126216370584 -0.2198529709881024 0.3627862499073858
S 3.4478762317 0.9065262615 10.8565392755 0.018583419137447276 0.7217222728911812 -0.4257667064060907
S 7.5494068512 0.954581088 4.6441866457 -0.15345603266230762 0.4865905216069608 0.17276861664485021
S 7.4420195627 0.8971415032 10.772667434 -0.04798012667058369 0.47726050260173536 0.022085261588151942
S 3.4316952846 4.0540219207 4.7073283525 0.2591831354289462 0.6848997053241789 0.44926016117357526
S 3.4874886348 4.0567562759 10.7813114446 0.3287299321881906 1.3571323569024791 0.7606914544538466
S 0.6163737002 5.989573884 1.6130873944 0.06501574172923198 -0.1679588540365292 0.08479549514884731
S 0.6385142252 5.9757173346 7.7251922538 0.033114265535687 0.09446027178041767 -0.130610238770985
S 4.7021237683 9.1634737385 1.4614607245 -0.018583419137447276 -0.7217222728911812 0.4257667064060907
S 4.715846604 9.1578966866 7.6751357447 -0.22026126216370584 0.2198529709881024 -0.3627862499073858
56
Lattice="8.14999996437687 0.0 0.0 0.0 10.06999995598467 0.0 0.0 0.0 12.3179999461588" Properties=species:S:1:pos:R:3:forces:R:3 energy=-13277.652961510996 stress="-0.12077324934926677 0.5601760457028111 -0.4742666941559514 0.5601760457028111 -0.35599423072500075 0.4964795573127593 -0.4742666941559514 0.4964795573127593 -1.4634010773769863" pbc="T T T"
Li 4.3085702926 7.8778182988 5.5464167242 -0.4619917496077892 0.19906765913789196 0.1484223269721537
Li 3.9218712125 7.3798141625 12.0941863951 0.40351920821100823 0.3995077731217355 -0.16990954997437768
Li 8.0260799898 7.6339629615 2.9701851684 0.5731459368420837 0.1482526341661724 0.03390719373818136
Li 8.1541698912 7.2036750127 9.1720737517 -0.12418942294709016 0.35814772276691864 0.1931191549573117
Li 4.2281287875 2.6901858375 0.2238136049 -0.40351920821100823 -0.3995077731217355 0.16990954997437768
Li 3.8414297074 2.1921817012 6.7715832758 0.4619917496077892 -0.19906765913789196 -0.1484223269721537
Li -0.0041698912 2.8663249873 3.1459262483 0.12418942294709016 -0.35814772276691864 -0.1931191549573117
Li 0.1239200102 2.4360370385 9.3478148316 -0.5731459368420837 -0.1482526341661724 -0.03390719373818136
Li 1.5182787035 9.8606463118 5.4645485521 -0.45085115978480583 0.010605029042893935 0.1317682636166512
Li 0.991051608 9.6905059786 11.324252439 -0.04568721690733963 0.4781495900609524 -0.2846658526810931
Li 5.0992692096 5.4273546041 3.9209368201 0.0228388519128961 -0.07301547197968904 0.39092543090407605
Li 5.794728888 4.7671541747 9.9674613078 0.17421074838537903 0.059436447956817066 -0.08747098505648555
Li 6.4098587578 5.0404614604 1.0510827179 0.016133157863202383 -0.17772673190324884 -0.15274692242155552
Li 6.7612118296 5.1842955945 6.7799271906 0.1743840407357296 -0.14977138477970492 0.0658145834689045
Li 2.8380341081 0.1806050763 2.1447674556 0.2817846745237806 0.21623208646289876 0.014272707644898491
Li 2.4907607431 -0.0273689939 8.8354411243 -0.022788715402037987 -0.1506635575626671 -0.10830720474849041
Li 7.158948392 0.3794940214 0.993747561 0.04568721690733963 -0.4781495900609524 0.2846658526810931
Li 6.6317212965 0.2093536882 6.8534514479 0.45085115978480583 -0.010605029042893935 -0.1317682636166512
Li 2.355271112 5.3028458253 2.3505386922 -0.17421074838537903 -0.059436447956817066 0.08747098505648555
Li 3.0507307904 4.6426453959 8.3970631799 -0.0228388519128961 0.07301547197968904 -0.39092543090407605
Li 1.3887881704 4.8857044055 5.5380728094 -0.1743840407357296 0.14977138477970492 -0.0658145834689045
Li 1.7401412422 5.0295385396 11.2669172821 -0.016133157863202383 0.17772673190324884 0.15274692242155552
Li 5.6592392569 10.0973689939 3.4825588757 0.022788715402037987 0.1506635575626671 0.10830720474849041
Li 5.3119658919 9.8893949237 10.1732325444 -0.2817846745237806 -0.21623208646289876 -0.014272707644898491
B 1.0022665193 7.6479330604 0.328559252 -0.17841218799528832 -1.5509035436112584 1.0044528562531512
B 1.0409120641 7.3013803898 6.7027176844 -0.06917938612326367 0.6657750689797761 2.0167522050107523
B 5.2848733371 7.9437982181 2.3738944616 0.1339488161735107 0.3715100027966963 0.5467196247445562
B 4.9468814715 7.684961866 8.2240202608 -0.42967735425302306 -2.1182778681674814 0.3460655949810512
B 7.1090879359 2.7686196102 5.6152823156 0.06917938612326367 -0.6657750689797761 -2.0167522050107523
B 7.1477334807 2.4220669396 11.989440748 0.17841218799528832 1.5509035436112584 -1.0044528562531512
B 3.2031185285 2.385038134 4.0939797392 0.42967735425302306 2.1182778681674814 -0.3460655949810512
B 2.8651266629 2.1262017819 9.9441055384 -0.1339488161735107 -0.3715100027966963 -0.5467196247445562
S 1.5297755391 7.4281972971 4.8999522328 0.18148722732791886 -0.30254453245309393 0.27313959738997046
S 1.8471215045 7.5021076938 11.0906376178 0.02976771771348641 -0.5949077536576229 -1.2623926062128163
S 6.0885624029 7.7480802569 4.0200053911 -0.8009513297832181 0.4477246983897567 -0.794704320530298
S 5.5847028056 7.3466486328 9.8909976608 0.10543682522428578 0.07142061671377707 -0.4823055211456213
S 6.3028784955 2.5678923062 1.2273623822 -0.02976771771348641 0.5949077536576229 1.2623926062128163
S 6.6202244609 2.6418027029 7.4180477672 -0.18148722732791886 0.30254453245309393 -0.27313959738997046
S 2.5652971944 2.7233513672 2.4270023392 -0.10543682522428578 -0.07142061671377707 0.4823055211456213
S 2.0614375971 2.3219197431 8.2979946089 0.8009513297832181 -0.4477246983897567 0.794704320530298
S 0.9672435574 9.1398134733 1.2139819007 -0.26814342980538214 1.491740661026508 1.2546155334926319
S 0.6606394064 8.9463273407 7.651173586 -0.09590163219001022 -1.399157037414056 -1.0262175012821233
S 4.4917545243 6.3112647661 1.8058986049 -0.3547528382060446 -1.1024283402205026 -0.45433397607241566
S 4.5176490399 6.1865975338 7.0485816374 0.8280415007065696 1.1085341959120836 1.3538999660588478
S 7.1726849714 4.3631286733 4.5395355326 0.4955153347603281 -1.0887089339672278 1.4847976541587526
S 7.8720965491 3.8565521135 11.0977747629 -0.5764426052637383 0.38467327944491414 -0.03481993534611098
S 3.6395080481 0.7437808418 4.6632350981 -0.2811442127363573 -0.4905181387344913 0.12440822382268121
S 3.0459243609 0.7644592805 11.0656031959 0.15052831753850626 0.526896162571885 -0.6264677873567086
S 7.4893605936 1.1236726593 4.666826414 0.09590163219001022 1.399157037414056 1.0262175012821233
S 7.1827564426 0.9301865267 11.1040180993 0.26814342980538214 -1.491740661026508 -1.2546155334926319
S 3.6323509601 3.8834024662 5.2694183626 -0.8280415007065696 -1.1085341959120836 -1.3538999660588478
S 3.6582454757 3.7587352339 10.5121013951 0.3547528382060446 1.1024283402205026 0.45433397607241566
S 0.2779034509 6.2134478865 1.2202252371 0.5764426052637383 -0.38467327944491414 0.03481993534611098
S 0.9773150286 5.7068713267 7.7784644674 -0.4955153347603281 1.0887089339672278 -1.4847976541587526
S 5.1040756391 9.3055407195 1.2523968041 -0.15052831753850626 -0.526896162571885 0.6264677873567086
S 4.5104919519 9.3262191582 7.6547649019 0.2811442127363573 0.4905181387344913 -0.12440822382268121
56
Lattice="8.14999996437687 0.0 0.0 0.0 10.06999995598467 0.0 0.0 0.0 12.3179999461588" Properties=species:S:1:pos:R:3:forces:R:3 energy=-13276.966521165568 stress="-0.5818004886435445 -0.5507613222456209 0.058694916553419546 -0.5507613222456209 -2.1821563713118435 0.5425234392205797 0.058694916553419546 0.5425234392205797 -2.0212234422155" pbc="T T T"
Li 4.3720550228 8.0780772887 6.0875497937 -0.5075789506037247 -0.09990252575648713 0.06677180516082619
Li 3.8554133626 6.628923624 12.0721394494 -0.027299715827707106 0.1099228859496819 0.05015733679338598
Li 8.0668610187 7.2690398602 3.5809441803 0.09900289677447423 0.4601737225909806 -0.0693110266030552
Li 7.7780791276 7.1921393117 9.3380587792 0.20394247065517243 0.12599228045548524 0.6430303194411061
Li 4.2945866374 3.441076376 0.2458605505 0.027299715827707106 -0.1099228859496819 -0.05015733679338598
Li 3.7779449772 1.9919227113 6.2304502063 0.5075789506037247 0.09990252575648713 -0.06677180516082619
Li 0.3719208724 2.8778606883 2.9799412208 -0.20394247065517243 -0.12599228045548524 -0.6430303194411061
Li 0.0831389813 2.8009601398 8.7370558197 -0.09900289677447423 -0.4601737225909806 0.0693110266030552
Li 1.188175639 9.8295456895 5.452272418 0.41635106966693836 -0.08922653426745555 -0.11957917794095323
Li 1.2407051558 10.2724167561 11.6201025075 -0.09743195276758689 -0.3293261710019339 0.22165017206963145
Li 5.1447929014 5.1759269967 4.8380315966 0.26837868574094714 0.17003116315199762 -0.30515857299614196
Li 5.0655852725 4.8711382278 9.3619814601 -0.15938705334166556 -0.05140277914516377 0.5239321948940785
Li 7.2239910881 5.1529080564 1.0459357113 -0.5635472375607213 -0.30312740153060835 0.17403359938034707
Li 6.9611871645 4.5913783761 6.9642020604 -0.11448042334183985 0.4061198790178274 -0.01330494443018099
Li 2.8318693176 0.4795385237 1.9810107774 -0.04725790380391487 -0.538058092550772 -0.12433751848685565
Li 2.6603033042 -0.3017614157 9.061444301 0.04423094409964571 0.12998211827854217 -0.1874264755372638
Li 6.9092948442 -0.2024167561 0.6978974925 0.09743195276758689 0.3293261710019339 -0.22165017206963145
Li 6.961824361 0.2404543105 6.865727582 -0.41635106966693836 0.08922653426745555 0.11957917794095323
Li 3.0844147275 5.1988617722 2.9560185399 0.15938705334166556 0.05140277914516377 -0.5239321948940785
Li 3.0052070986 4.8940730033 7.4799684034 -0.26837868574094714 -0.17003116315199762 0.30515857299614196
Li 1.1888128355 5.4786216239 5.3537979396 0.11448042334183985 -0.4061198790178274 0.01330494443018099
Li 0.9260089119 4.9170919436 11.2720642887 0.5635472375607213 0.30312740153060835 -0.17403359938034707
Li 5.4896966958 10.3717614157 3.256555699 -0.04423094409964571 -0.12998211827854217 0.1874264755372638
Li 5.3181306824 9.5904614763 10.3369892226 0.04725790380391487 0.538058092550772 0.12433751848685565
B 1.0711384708 7.488888035 0.9833852364 0.7739963988840275 0.5303031313174275 0.39537755306827593
B 0.8996703282 7.4808973125 7.0837431577 1.3831447213975374 -0.131366143088538 -1.8672870386127502
B 5.1198482889 7.7713264433 2.4496369169 -1.1528322458031857 -1.323992637445895 -3.002648124488602
B 5.335501466 7.4755531277 8.6646155664 -0.914894906793408 0.7015488835837517 -0.579814349896524
B 7.2503296718 2.5891026875 5.2342568423 -1.3831447213975374 0.131366143088538 1.8672870386127502
B 7.0788615292 2.581111965 11.3346147636 -0.7739963988840275 -0.5303031313174275 -0.39537755306827593
B 2.814498534 2.5944468723 3.6533844336 0.914894906793408 -0.7015488835837517 0.579814349896524
B 3.0301517111 2.2986735567 9.8683630831 1.1528322458031857 1.323992637445895 3.002648124488602
S 1.9668761085 7.5588222789 5.3494614283 -0.990493566078694 0.337578126468554 1.1432286614258933
S 1.4333885014 7.5377175688 11.5072711178 -0.31906978354223786 -0.4385229774302656 0.0820223033226138
S 5.5561074148 7.8098052693 4.0990147035 1.0055720574416915 0.5314868671943028 1.6420758887206326
S 5.7078754164 7.36557118 10.4916642445 -0.1784926635229734 -0.6802112987831657 -1.2090203620770215
S 6.7166114986 2.5322824312 0.8107288822 0.31906978354223786 0.4385229774302656 -0.0820223033226138
S 6.1831238915 2.5111777211 6.9685385717 0.990493566078694 -0.337578126468554 -1.1432286614258933
S 2.4421245836 2.70442882 1.8263357555 0.1784926635229734 0.6802112987831657 1.2090203620770215
S 2.5938925852 2.2601947307 8.2189852965 -1.0055720574416915 -0.5314868671943028 -1.6420758887206326
S 0.8101846162 9.1839628043 1.8150431125 -0.6186922572983965 -0.6813778082691311 -0.38134730044768095
S 0.5175374824 8.9677626071 7.9100678238 0.027229781822817854 0.7356612513509831 0.14257666691641058
S 5.0439616621 5.9153947794 1.7773774963 0.10468400623047792 1.0156212139898406 0.16724768691328035
S 5.1061405351 6.1063432448 7.3768059492 0.12446118854697233 0.6344423207965806 0.7845407498932675
S 7.4829798871 4.2352546887 4.5119883344 -0.4736301049949843 0.6410821946063784 -0.04906821751136065
S 7.0098237602 4.0870518401 10.3022809068 0.9006805631893546 -0.6359255901870442 1.0672677337108687
S 3.2522606845 0.8065831391 4.2811734347 -0.16497200354094654 0.94335984655552 -0.10781972359676237
S 3.5212543537 0.9478776743 11.1218870309 -0.7886141485677547 0.6672621950249212 -1.14041741727347
S 7.6324625176 1.1022373929 4.4079321762 -0.027229781822817854 -0.7356612513509831 -0.14257666691641058
S 7.3398153838 0.8860371957 10.5029568875 0.6186922572983965 0.6813778082691311 0.38134730044768095
S 3.0438594649 3.9636567552 4.9411940508 -0.12446118854697233 -0.6344423207965806 -0.7845407498932675
S 3.1060383379 4.1546052206 10.5406225037 -0.10468400623047792 -1.0156212139898406 -0.16724768691328035
S 1.1401762398 5.9829481599 2.0157190932 -0.9006805631893546 0.6359255901870442 -1.0672677337108687
S 0.6670201129 5.8347453113 7.8060116656 0.4736301049949843 -0.6410821946063784 0.04906821751136065
S 4.6287456463 9.1221223257 1.1961129691 0.7886141485677547 -0.6672621950249212 1.14041741727347
S 4.8977393155 9.2634168609 8.0368265653 0.16497200354094654 -0.94335984655552 0.10781972359676237
56
Lattice="8.14999996437687 0.0 0.0 0.0 10.06999995598467 0.0 0.0 0.0 12.3179999461588" Properties=species:S:1:pos:R:3:forces:R:3 energy=-13276.944262253906 stress="0.21227259294883308 -1.1322676007811285 -1.2034664469261285 -1.1322676007811285 0.5520852677317883 -0.34349030113342005 -1.2034664469261285 -0.34349030113342005 0.9788370294397334" pbc="T T T"
Li 3.8440712297 7.207618073 5.855014104 0.31267185053611934 0.3341577879867828 -0.1544626195341511
Li 3.7171809106 7.3826699505 11.958400057 0.48610612577897794 -0.10576695486501302 0.3482536037369614
Li 7.7993132038 8.4136906222 3.4281722114 0.31433663980692056 -0.1473828299803623 0.6985748886037735
Li 7.9315442388 8.0911651635 10.0830745532 0.2460725663947074 0.12355024671122733 -0.4460992469967057
Li 4.4328190894 2.6873300495 0.359599943 -0.48610612577897794 0.10576695486501302 -0.3482536037369614
Li 4.3059287703 2.862381927 6.462985896 -0.31267185053611934 -0.3341577879867828 0.1544626195341511
Li 0.2184557612 1.9788348365 2.2349254468 -0.2460725663947074 -0.12355024671122733 0.4460992469967057
Li 0.3506867962 1.6563093778 8.8898277886 -0.31433663980692056 0.1473828299803623 -0.6985748886037735
Li 1.6148839398 10.1609113926 5.5896016613 0.006155735092127102 0.237194033097517 0.17296633447484963
Li 1.656386943 10.2984180198 12.3140331142 0.18758974058544275 0.06438453591304405 -0.6783009691643157
Li 5.3551230719 4.9840158466 4.1776048071 -0.14667526240148276 0.8984452461360195 -0.11714640016793064
Li 5.5828696649 5.2885538892 10.1705025358 0.10888390317851467 -0.1234510021307595 0.04535194506037055
Li 6.6539027695 4.852244134 2.0276843149 0.5117971023839201 -0.02755245526449438 -0.3809714051714012
Li 7.0871954256 4.8262903446 7.5124872522 0.03481787846361424 -0.2627762520404438 0.013082544010220673
Li 2.5030887704 -0.2599740358 2.7673847954 0.2512829068692691 0.005490333604430796 0.14650479826456522
Li 2.6121663976 -0.0633221183 8.69520672 0.13395113016631954 0.07788385573916723 -0.1970254319289384
Li 6.493613057 -0.2284180198 0.0039668858 -0.18758974058544275 -0.06438453591304405 0.6783009691643157
Li 6.5351160602 -0.0909113926 6.7283983387 -0.006155735092127102 -0.237194033097517 -0.17296633447484963
Li 2.5671303351 4.7814461108 2.1474974642 -0.10888390317851467 0.1234510021307595 -0.04535194506037055
Li 2.7948769281 5.0859841534 8.1403951929 0.14667526240148276 -0.8984452461360195 0.11714640016793064
Li 1.0628045744 5.2437096554 4.8055127478 -0.03481787846361424 0.2627762520404438 -0.013082544010220673
Li 1.4960972305 5.217755866 10.2903156851 -0.5117971023839201 0.02755245526449438 0.3809714051714012
Li 5.5378336024 10.1333221183 3.62279328 -0.13395113016631954 -0.07788385573916723 0.1970254319289384
Li 5.6469112296 10.3299740358 9.5506152046 -0.2512829068692691 -0.005490333604430796 -0.14650479826456522
B 0.6285719895 7.610363699 1.0773983528 0.21333933834154206 1.3610034097613493 0.3494702497337848
B 1.2240499333 7.8408842926 6.960697752 -0.1908516991149648 -0.545545401949228 -1.5865999680112939
B 5.0410240028 7.487743993 2.3262384786 -0.46542160117110787 -1.7686039870665191 0.48299663366452694
B 5.0428067193 7.5529328437 8.5702623863 -0.442874055241813 2.1493432216261006 -0.11825094606868154
B 6.9259500667 2.2291157074 5.357302248 0.1908516991149648 0.545545401949228 1.5865999680112939
B 7.5214280105 2.459636301 11.2406016472 -0.21333933834154206 -1.3610034097613493 -0.3494702497337848
B 3.1071932807 2.5170671563 3.7477376137 0.442874055241813 -2.1493432216261006 0.11825094606868154
B 3.1089759972 2.582256007 9.9917615214 0.46542160117110787 1.7686039870665191 -0.48299663366452694
S 1.5896113194 7.8398073355 5.2579100418 0.5072423932051952 -0.8768510652439648 -0.23513277972546862
S 1.2753432238 7.3943457629 11.7258448883 0.04327475084897238 -0.1846527694904061 -0.3561376343469767
S 5.8555304686 7.4367174592 4.0992908823 -0.9874259829451143 -0.1742194901359902 -0.21089550482509944
S 5.4873878636 7.9179772464 10.2674072165 0.15781945176883544 -0.9084743480798254 0.5708340009157448
S 6.8746567762 2.6756542371 0.5921551117 -0.04327475084897238 0.1846527694904061 0.3561376343469767
S 6.5603886806 2.2301926645 7.0600899582 -0.5072423932051952 0.8768510652439648 0.23513277972546862
S 2.6626121364 2.1520227536 2.0505927835 -0.15781945176883544 0.9084743480798254 -0.5708340009157448
S 2.2944695314 2.6332825408 8.2187091177 0.9874259829451143 0.1742194901359902 0.21089550482509944
S 0.2835739278 9.4599918531 1.5966745723 0.2891837950851888 -0.9431924677423474 -0.22229371918079988
S 0.5213168886 9.3479402614 7.643550331 -0.5546656189397857 1.9560163215366182 1.6636245610874467
S 4.5652225105 5.8625515286 1.5369908253 0.5970196577611536 1.2327673276122295 0.37258575234249286
S 4.867993798 5.9062917449 7.7952625938 0.9561022336228419 -1.3510558117864766 -0.5258458669469857
S 7.1357596959 3.6812180696 4.3243315152 0.5382738081026179 1.360199682925747 -0.7338090286626662
S 7.6140799174 3.6434601609 9.8699038459 -0.14614767204106824 1.1920613658913768 0.4310780912333049
S 3.6216989212 1.1155551467 4.7518549699 -0.04045553627687424 -0.11788404965332502 0.03457542343931068
S 3.4896926524 1.01224929 10.6959636002 0.3949720901061055 -0.6137413411287366 0.8146087724512785
S 7.6286831114 0.7220597386 4.674449669 0.5546656189397857 -1.9560163215366182 -1.6636245610874467
S 7.8664260722 0.6100081469 10.7213254277 -0.2891837950851888 0.9431924677423474 0.22229371918079988
S 3.282006202 4.1637082551 4.5227374062 -0.9561022336228419 1.3510558117864766 0.5258458669469857
S 3.5847774895 4.2074484714 10.7810091747 -0.5970196577611536 -1.2327673276122295 -0.37258575234249286
S 0.5359200826 6.4265398391 2.4480961541 0.14614767204106824 -1.1920613658913768 -0.4310780912333049
S 1.0142403041 6.3887819304 7.9936684848 -0.5382738081026179 -1.360199682925747 0.7338090286626662
S 4.6603073476 9.05775071 1.6220363998 -0.3949720901061055 0.6137413411287366 -0.8146087724512785
S 4.5283010788 8.9544448533 7.5661450301 0.04045553627687424 0.11788404965332502 -0.03457542343931068
56
Lattice="8.14999996437687 0.0 0.0 0.0 10.06999995598467 0.0 0.0 0.0 12.3179999461588" Properties=species:S:1:pos:R:3:forces:R:3 energy=-13276.130158478505 stress="1.3602804345099513 -0.6628553734077905 -0.2706732993942154 -0.6628553734077905 2.768517116629964 1.2527466400223581 -0.2706732993942154 1.2527466400223581 2.078300203174715" pbc="T T T"
Li 3.6999537791 6.9623984025 5.7639390956 0.4178744482660885 0.1242421305610692 -0.09115846115252127
Li 4.1068416738 7.7949797781 11.6996689646 -0.5506755240064166 -0.0003545551203760452 0.6443377253780982
Li 7.5703645399 8.0573386216 3.3021285796 0.16896389824650015 -0.04585331016895161 0.1713730218708102
Li 8.0409936786 7.6037538167 9.8384568098 0.28001292736314876 0.4923423363987901 0.11129919745031495
Li 4.0431583262 2.2750202219 0.6183310354 0.5506755240064166 0.0003545551203760452 -0.6443377253780982
Li 4.4500462209 3.1076015975 6.5540609044 -0.4178744482660885 -0.1242421305610692 0.09115846115252127
Li 0.1090063214 2.4662461833 2.4795431902 -0.28001292736314876 -0.4923423363987901 -0.11129919745031495
Li 0.5796354601 2.0126613784 9.0158714204 -0.16896389824650015 0.04585331016895161 -0.1713730218708102
Li 1.1547942832 9.851653414 5.5520389651 0.3613436039462328 0.36814879968670644 0.0018720201823480675
Li 1.273541372 10.1007582209 11.4533213798 0.5445493566001802 -0.3194788460487776 0.12498980734863521
Li 5.6089581855 5.0345522676 3.486467258 -0.1025404775585598 -0.33241509429141747 -0.012166202857921742
Li 5.2854652698 5.1189171329 9.7428205695 0.18102648564864848 0.41512825302262474 0.16464495922396444
Li 6.9118644089 5.3478569542 0.165306922 -1.3054868656226997 0.590477485869951 1.2061378983681488
Li 6.9924342929 4.5374737591 7.7678137144 0.5280037937963811 0.8278226998309786 -0.10561217445713311
Li 2.6721478029 -0.3925326228 2.6371428675 -0.24100235104023637 0.5787820519934712 0.35198993079229474
Li 2.8427883711 -0.0769192036 8.4858694906 0.38092821063896964 0.2988945944626238 -0.05958068684190116
Li 6.876458628 -0.0307582209 0.8646786202 -0.5445493566001802 0.3194788460487776 -0.12498980734863521
Li 6.9952057168 0.218346586 6.7659610349 -0.3613436039462328 -0.36814879968670644 -0.0018720201823480675
Li 2.8645347302 4.9510828671 2.5751794305 -0.18102648564864848 -0.41512825302262474 -0.16464495922396444
Li 2.5410418145 5.0354477324 8.831532742 0.1025404775585598 0.33241509429141747 0.012166202857921742
Li 1.1575657071 5.5325262409 4.5501862856 -0.5280037937963811 -0.8278226998309786 0.10561217445713311
Li 1.2381355911 4.7221430458 12.152693078 1.3054868656226997 -0.590477485869951 -1.2061378983681488
Li 5.3072116289 10.1469192036 3.8321305094 -0.38092821063896964 -0.2988945944626238 0.05958068684190116
Li 5.4778521971 10.4625326228 9.6808571325 0.24100235104023637 -0.5787820519934712 -0.35198993079229474
B 0.983600507 7.51740626 0.7277456959 0.03166287782392283 -0.036396021559240176 -0.697928513279172
B 1.0373323193 7.5191799775 7.188402352 -1.0310357485307435 0.5639244183885614 1.362811409475986
B 4.8570483327 7.3888113351 2.4355796268 1.345579619249211 2.2632837133125454 3.0216750589144095
B 5.1249991658 7.5970640059 8.406992295 0.8545359470368018 -2.3668860564600487 -0.23822375989744887
B 7.1126676807 2.5508200225 5.129597648 1.0310357485307435 -0.5639244183885614 -1.362811409475986
B 7.166399493 2.55259374 11.5902543041 -0.03166287782392283 0.036396021559240176 0.697928513279172
B 3.0250008342 2.4729359941 3.911007705 -0.8545359470368018 2.3668860564600487 0.23822375989744887
B 3.2929516673 2.6811886649 9.8824203733 -1.345579619249211 -2.2632837133125454 -3.0216750589144095
S 1.467510406 7.564305571 5.477742987 0.10341156729593039 0.27387184755881094 -0.8471393975785146
S 1.6439879943 7.5793693044 11.3359401182 0.3048197016048036 0.031228104286173817 -0.06316788991622066
S 5.5288534916 7.248335382 4.1333795078 -0.4840471863997384 0.23708476121487754 -0.45567892011497335
S 5.7324871579 7.5772511885 10.1060282788 -0.22625450353859028 -0.21892326009957466 0.4836818326462544
S 6.5060120057 2.4906306956 0.9820598818 -0.3048197016048036 -0.031228104286173817 0.06316788991622066
S 6.682489594 2.505694429 6.840257013 -0.10341156729593039 -0.27387184755881094 0.8471393975785146
S 2.4175128421 2.4927488115 2.2119717212 0.22625450353859028 0.21892326009957466 -0.4836818326462544
S 2.6211465084 2.821664618 8.1846204922 0.4840471863997384 -0.23708476121487754 0.45567892011497335
S 0.6797883623 9.0018785835 1.5832370008 -0.08758565625567896 0.4398509521922252 0.337655516672494
S 0.7132915567 9.3045239742 7.935534874 -0.149012909359031 -0.7104315306459354 -0.31977837956236577
S 4.4534023203 6.0714877359 1.3338131189 -0.38420302468409634 -3.2426248624938996 -2.2247395350957695
S 5.0563766573 5.9941022632 7.405125074 -0.28438560244091193 0.09294820603499962 1.6258116045982627
S 7.5719707376 3.8570594242 4.0524168827 -0.5418826084431533 0.21869880279711756 1.1320117098402183
S 7.5646601039 4.2016275522 10.8854362131 -0.007417889614190921 -0.6909775359917418 -2.350910764328471
S 3.3407503833 1.0613385117 4.7858541625 0.5294860347455963 -2.1567099462881854 1.068709351230773
S 3.5187391045 1.02257271 10.5007646571 -0.5976457213710997 -1.3566497608466808 1.2346393477945776
S 7.4367084433 0.7654760258 4.382465126 0.149012909359031 0.7104315306459354 0.31977837956236577
S 7.4702116377 1.0681214165 10.7347629992 0.08758565625567896 -0.4398509521922252 -0.337655516672494
S 3.0936233427 4.0758977368 4.912874926 0.28438560244091193 -0.09294820603499962 -1.6258116045982627
S 3.6965976797 3.9985122641 10.9841868811 0.38420302468409634 3.2426248624938996 2.2247395350957695
S 0.5853398961 5.8683724478 1.4325637869 0.007417889614190921 0.6909775359917418 2.350910764328471
S 0.5780292624 6.2129405758 8.2655831173 0.5418826084431533 -0.21869880279711756 -1.1320117098402183