56
Lattice="8.14999996437687 0.0 0.0 0.0 10.06999995598467 0.0 0.0 0.0 12.3179999461588" Properties=species:S:1:pos:R:3:forces:R:3 energy=-13281.865434556272 stress="-0.6281385806594021 0.28450117447196344 -0.1418092720739259 0.28450117447196344 -0.43852016602943267 0.488241674287718 -0.1418092720739259 0.488241674287718 0.1103287905139465" pbc="T T T"
Li 4.1228141136 7.5992474826 5.8963981517 -0.03292606078723502 0.031531751564755475 -0.0496924813491221
Li 3.8921927788 7.6078537957 11.9495287398 0.2329301156817691 0.07163478960375042 0.041672696494321815
Li 8.0139406203 7.5565743696 3.3768451631 0.02758562249475436 0.07939977813926669 -0.10941894973797991
Li 8.1551474529 7.5644619692 9.6110398817 -0.11072198479966651 0.02183894990916699 -0.22661651485801704
Li 4.2578072212 2.4621462043 0.3684712602 -0.2329301156817691 -0.07163478960375042 -0.041672696494321815
Li 4.0271858864 2.4707525174 6.4216018483 0.03292606078723502 -0.031531751564755475 0.0496924813491221
Li -0.0051474529 2.5055380308 2.7069601183 0.11072198479966651 -0.02183894990916699 0.22661651485801704
Li 0.1360593797 2.5134256304 8.9411548369 -0.02758562249475436 -0.07939977813926669 0.10941894973797991
Li 1.4557457188 9.8557465251 5.5843146594 -0.15812181349585663 0.2372045746203128 -0.0043508207012352695
Li 1.3892029492 10.0233339242 11.5882688056 -0.03916329984829556 -0.017166227097191466 0.10449580148202595
Li 5.5232629302 5.1962330345 3.7750415213 -0.06339903208679212 -0.07559403129966827 -0.02434397567988766
Li 5.4522697588 5.1189705543 9.675657136 0.056842462018112265 0.07287868929365565 0.11770895753078978
Li 6.7791481806 4.9843352957 0.4756179871 -0.06375795808247375 -0.012325354141107218 0.10914281326279218
Li 6.7561734018 4.859729552 6.6421817047 0.051731366124018435 0.18707886239531427 0.12752491502587077
Li 2.6229845313 0.1069831381 2.5635124522 0.13191147406048692 -0.006233639516691237 -0.15786753139719678
Li 2.6117223674 0.0001207712 8.6299655277 0.05499769552884604 0.10844938675107778 0.05174627852211982
Li 6.7607970508 0.0466660758 0.7297311944 0.03916329984829556 0.017166227097191466 -0.10449580148202595
Li 6.6942542812 0.2142534749 6.7336853406 0.15812181349585663 -0.2372045746203128 0.0043508207012352695
Li 2.6977302412 4.9510294457 2.642342864 -0.056842462018112265 -0.07287868929365565 -0.11770895753078978
Li 2.6267370698 4.8737669655 8.5429584787 0.06339903208679212 0.07559403129966827 0.02434397567988766
Li 1.3938265982 5.210270448 5.6758182953 -0.051731366124018435 -0.18707886239531427 -0.12752491502587077
Li 1.3708518194 5.0856647043 11.8423820129 0.06375795808247375 0.012325354141107218 -0.10914281326279218
Li 5.5382776326 10.0698792288 3.6880344723 -0.05499769552884604 -0.10844938675107778 -0.05174627852211982
Li 5.5270154687 9.9630168619 9.7544875478 -0.13191147406048692 0.006233639516691237 0.15786753139719678
B 1.0535965829 7.5168829562 0.7598472407 -0.25183595115058083 0.6811222406189108 -0.23989549114667666
B 1.0509690098 7.4957455436 6.7537711462 -1.1896378440895896 0.47745693488017427 2.4737400737245903
B 4.9744163965 7.4637805507 2.3254072322 0.38156147333765433 2.1047806052238553 0.5717727106651957
B 4.9940747265 7.5482029401 8.4077355318 0.5588408332978616 0.41850745385446114 1.0347178253102254
B 7.0990309902 2.5742544564 5.5642288538 1.1896378440895896 -0.47745693488017427 -2.4737400737245903
B 7.0964034171 2.5531170438 11.5581527593 0.25183595115058083 -0.6811222406189108 0.23989549114667666
B 3.1559252735 2.5217970599 3.9102644682 -0.5588408332978616 -0.41850745385446114 -1.0347178253102254
B 3.1755836035 2.6062194493 9.9925927678 -0.38156147333765433 -2.1047806052238553 -0.5717727106651957
S 1.618454878 7.5655015765 5.1795239135 0.9110953306012998 -0.16678720234432207 -1.9242652548756476
S 1.6407809885 7.5592846306 11.2930963906 -0.013220355137502441 -0.21170797341131287 0.38939922409149286
S 5.7191677821 7.5344521879 4.0568283196 -0.15617831664674672 0.06954808231080481 -0.20176474631174596
S 5.7397927979 7.5680993814 10.1566414139 -0.22221478631498734 -0.1641551640794275 -0.28208060849299954
S 6.5092190115 2.5107153694 1.0249036094 0.013220355137502441 0.21170797341131287 -0.38939922409149286
S 6.531545122 2.5044984235 7.1384760865 -0.9110953306012998 0.16678720234432207 1.9242652548756476
S 2.4102072021 2.5019006186 2.1613585861 0.22221478631498734 0.1641551640794275 0.28208060849299954
S 2.4308322179 2.5355478121 8.2611716804 0.15617831664674672 -0.06954808231080481 0.20176474631174596
S 0.7079804373 9.1728584968 1.545332566 0.04798012667058369 -0.47726050260173536 -0.022085261588151942
S 0.6005931488 9.115418912 7.6738133543 0.15345603266230762 -0.4865905216069608 -0.17276861664485021
S 4.6625113652 6.0132437241 1.5366885554 -0.3287299321881906 -1.3571323569024791 -0.7606914544538466
S 4.7183047154 6.0159780793 7.6106716475 -0.2591831354289462 -0.6848997053241789 -0.44926016117357526
S 7.5114857748 4.0942826654 4.5928077462 -0.033114265535687 -0.09446027178041767 0.130610238770985
S 7.5336262998 4.080426116 10.7049126056 -0.06501574172923198 0.1679588540365292 -0.08479549514884731
S 3.434153396 0.9121033134 4.6428642553 0.22026126216370584 -0.2198529709881024 0.3627862499073858
S 3.4478762317 0.9065262615 10.8565392755 0.018583419137447276 0.7217222728911812 -0.4257667064060907
S 7.5494068512 0.954581088 4.6441866457 -0.15345603266230762 0.4865905216069608 0.17276861664485021
S 7.4420195627 0.8971415032 10.772667434 -0.04798012667058369 0.47726050260173536 0.022085261588151942
S 3.4316952846 4.0540219207 4.7073283525 0.2591831354289462 0.6848997053241789 0.44926016117357526
S 3.4874886348 4.0567562759 10.7813114446 0.3287299321881906 1.3571323569024791 0.7606914544538466
S 0.6163737002 5.989573884 1.6130873944 0.06501574172923198 -0.1679588540365292 0.08479549514884731
S 0.6385142252 5.9757173346 7.7251922538 0.033114265535687 0.09446027178041767 -0.130610238770985
S 4.7021237683 9.1634737385 1.4614607245 -0.018583419137447276 -0.7217222728911812 0.4257667064060907
S 4.715846604 9.1578966866 7.6751357447 -0.22026126216370584 0.2198529709881024 -0.3627862499073858
56
Lattice="8.14999996437687 0.0 0.0 0.0 10.06999995598467 0.0 0.0 0.0 12.3179999461588" Properties=species:S:1:pos:R:3:forces:R:3 energy=-13276.928341281618 stress="-0.3371647838106205 0.13489533453505193 0.41145283609001115 0.13489533453505193 -0.7727428487596812 0.5498786919215094 0.41145283609001115 0.5498786919215094 -0.9888401731129979" pbc="T T T"
Li 3.8320840147 8.3049160936 5.8141995154 0.1595649736776338 -0.11456244153139745 -0.13955562074931957
Li 4.3851249046 7.6417818758 12.0401597734 -0.8495240957231759 -0.684421223033374 0.6312644373391127
Li 8.503061444 7.5739266444 3.2399102126 -0.48180698425047325 -0.14626182901963747 -0.1414464099844504
Li 7.7231427314 7.4511197143 9.7374049765 0.7663417106723991 0.03116176982565386 -0.06566288838476972
Li 3.7648750954 2.4282181242 0.2778402266 0.8495240957231759 0.684421223033374 -0.6312644373391127
Li 4.3179159853 1.7650839064 6.5038004846 -0.1595649736776338 0.11456244153139745 0.13955562074931957
Li 0.4268572686 2.6188802857 2.5805950235 -0.7663417106723991 -0.03116176982565386 0.06566288838476972
Li -0.353061444 2.4960733556 9.0780897874 0.48180698425047325 0.14626182901963747 0.1414464099844504
Li 1.0915745033 9.8838514325 5.3268509213 0.6054243367531569 -0.25885197734697063 -0.08000244471081233
Li 1.2116552482 9.7087304678 11.5467196967 -0.4370744179319344 0.43358080301121676 0.11858210415065712
Li 5.2046901334 5.6150614093 4.6793669793 0.12095240411784113 0.5287794956079651 -0.4226662131525631
Li 5.6352903357 4.8969298656 9.7856830932 -0.324056952265903 -0.3006681413954403 0.038398910890443505
Li 6.5136703584 4.7479627005 0.663178294 -0.35768775241858447 0.6200384868925147 0.5750704075280988
Li 6.9403756306 4.9281191656 7.0067789909 -0.18403210519701396 0.0676639779437884 -0.2778187479597483
Li 3.0569829601 0.4177038635 1.9387405441 -0.12774577278395852 -0.437001141492988 0.12302651300549419
Li 2.5755384584 -0.3363665679 8.6111164652 0.3014947510488188 0.43842116174667684 0.41075557794486156
Li 6.9383447518 0.3612695322 0.7712803033 0.4370744179319344 -0.43358080301121676 -0.11858210415065712
Li 7.0584254967 0.1861485675 6.9911490787 -0.6054243367531569 0.25885197734697063 0.08000244471081233
Li 2.5147096643 5.1730701344 2.5323169068 0.324056952265903 0.3006681413954403 -0.038398910890443505
Li 2.9453098666 4.4549385907 7.6386330207 -0.12095240411784113 -0.5287794956079651 0.4226662131525631
Li 1.2096243694 5.1418808344 5.3112210091 0.18403210519701396 -0.0676639779437884 0.2778187479597483
Li 1.6363296416 5.3220372995 11.654821706 0.35768775241858447 -0.6200384868925147 -0.5750704075280988
Li 5.5744615416 10.4063665679 3.7068835348 -0.3014947510488188 -0.43842116174667684 -0.41075557794486156
Li 5.0930170399 9.6522961365 10.3792594559 0.12774577278395852 0.437001141492988 -0.12302651300549419
B 1.0122017315 7.4876651046 0.5605436587 1.1361542711886585 0.701447325010475 -0.04202262362908018
B 0.9555186125 7.327715771 7.0572390496 1.0531436358263597 -1.2797742917515418 -2.6323226288997175
B 5.3225227073 7.6219268709 2.3095185692 -1.8183635742070978 -1.263562458132839 -1.7655150637770358
B 5.0127424139 7.3764560187 8.3353965991 -0.0002522252161630894 2.361061479449897 1.0717393962587873
B 7.1944813875 2.742284229 5.2607609504 -1.0531436358263597 1.2797742917515418 2.6323226288997175
B 7.1377982685 2.5823348954 11.7574563413 -1.1361542711886585 -0.701447325010475 0.04202262362908018
B 3.1372575861 2.6935439813 3.9826034009 0.0002522252161630894 -2.361061479449897 -1.0717393962587873
B 2.8274772927 2.4480731291 10.0084814308 1.8183635742070978 1.263562458132839 1.7655150637770358
S 1.6796271788 7.4769338278 5.1511899562 -0.23712178509981893 0.07362585186059747 1.4002988643100605
S 1.8203418078 7.5892892338 11.1786735384 -0.7840172732978465 -0.27339027994426107 0.41641123347996806
S 6.0223241562 8.0026074338 3.9237369832 0.45929723353705604 -0.33086651888168217 1.6468226593024908
S 5.4400619686 7.1567874645 10.1677294163 0.3071390937301932 0.268087379757346 -1.0330309245525842
S 6.3296581922 2.4807107662 1.1393264616 0.7840172732978465 0.27339027994426107 -0.41641123347996806
S 6.4703728212 2.5930661722 7.1668100438 0.23712178509981893 -0.07362585186059747 -1.4002988643100605
S 2.7099380314 2.9132125355 2.1502705837 -0.3071390937301932 -0.268087379757346 1.0330309245525842
S 2.1276758438 2.0673925662 8.3942630168 -0.45929723353705604 0.33086651888168217 -1.6468226593024908
S 1.0016347592 9.0844329906 1.604161493 -0.3559797686153517 -0.2521200580454434 -0.6474281913294543
S 0.6419961794 8.9064824528 7.8014276618 -0.8603862350781626 1.172799946860941 0.7685777990566707
S 4.5551831233 5.9672270842 1.6834795159 1.2622211136346504 1.7278944258012972 0.49340343065679726
S 4.628425211 6.0566314033 7.320806367 0.63709338522457 -0.3926113032204689 -0.9791177203201457
S 7.2133220646 4.3778251634 4.5033118898 0.5725450700427228 -0.18557142463551388 -0.11330491499495131
S 7.5275508912 4.1663691957 11.0699341804 0.3441866328202767 -0.5868113499298189 -1.0364054973988028
S 3.3345113542 0.7537761752 4.4848374531 -0.25614511998125705 1.5653636846736725 -0.2940087272019232
S 3.0440467785 0.9379475187 11.0788887868 0.23342762413566878 -0.18956511911325213 -0.16687410562980945
S 7.5080038206 1.1635175472 4.5165723382 0.8603862350781626 -1.172799946860941 -0.7685777990566707
S 7.1483652408 0.9855670094 10.713838507 0.3559797686153517 0.2521200580454434 0.6474281913294543
S 3.521574789 4.0133685967 4.997193633 -0.63709338522457 0.3926113032204689 0.9791177203201457
S 3.5948168767 4.1027729158 10.6345204841 -1.2622211136346504 -1.7278944258012972 -0.49340343065679726
S 0.6224491088 5.9036308043 1.2480658196 -0.3441866328202767 0.5868113499298189 1.0364054973988028
S 0.9366779354 5.6921748366 7.8146881102 -0.5725450700427228 0.18557142463551388 0.11330491499495131
S 5.1059532215 9.1320524813 1.2391112132 -0.23342762413566878 0.18956511911325213 0.16687410562980945
S 4.8154886458 9.3162238248 7.8331625469 0.25614511998125705 -1.5653636846736725 0.2940087272019232
56
Lattice="8.14999996437687 0.0 0.0 0.0 10.06999995598467 0.0 0.0 0.0 12.3179999461588" Properties=species:S:1:pos:R:3:forces:R:3 energy=-13277.424794468934 stress="0.13371849410290315 -0.9069026580246402 -0.18314579225315117 -0.9069026580246402 0.43145912343654014 -0.09400012951788243 -0.18314579225315117 -0.09400012951788243 -0.13754322550738665" pbc="T T T"
Li 3.7790098145 7.4701062422 6.0868969945 0.37886927125973 -0.33036001156685924 -0.4695075982508875
Li 3.3700965917 7.5015929451 12.020593176 1.2799154453128807 -0.05430863989243719 0.30399180639986456
Li 7.9298573445 8.3176481104 3.687451028 -0.20744405599556504 0.09721855120854983 -0.03305435883296936
Li 7.799435045 8.0543215601 9.9274604515 0.7476132813189315 0.07657285025780576 -0.37805885955601337
Li 4.7799034083 2.5684070549 0.297406824 -1.2799154453128807 0.05430863989243719 -0.30399180639986456
Li 4.3709901855 2.5998937578 6.2311030055 -0.37886927125973 0.33036001156685924 0.4695075982508875
Li 0.350564955 2.0156784399 2.3905395485 -0.7476132813189315 -0.07657285025780576 0.37805885955601337
Li 0.2201426555 1.7523518896 8.630548972 0.20744405599556504 -0.09721855120854983 0.03305435883296936
Li 1.5450045015 10.2032283194 5.7560536225 0.033344122154698 0.1680766105594677 -0.1906498675199719
Li 1.5786169003 10.1394645943 12.1505993614 0.19372902061759592 0.04521747636714599 0.009584043993573212
Li 5.2218341561 5.0950280868 4.0862092838 0.15344317714670297 0.4089398649208618 -0.0625582813662485
Li 5.5539229863 5.2655086746 10.0971131704 0.0009631352290998298 -0.08490785235523189 -0.10537743274219236
Li 6.7962488333 4.6826802403 1.7636854246 0.311638267081506 0.7774707305313383 0.42339640643890675
Li 7.1344122305 4.6802838907 7.5162087715 -0.10301073231937763 0.14281912194071417 -0.0032002520546197495
Li 2.4857203879 -0.184106968 2.735511916 0.23780209898561663 -0.029039067089015262 -0.046305310097610845
Li 2.6236374372 -0.0268693996 8.9633497457 -0.1461852101466338 0.002622525183347107 -0.6781508167420536
Li 6.5713830997 -0.0694645943 0.1674006386 -0.19372902061759592 -0.04521747636714599 -0.009584043993573212
Li 6.6049954985 -0.1332283194 6.5619463775 -0.033344122154698 -0.1680766105594677 0.1906498675199719
Li 2.5960770137 4.8044913254 2.2208868296 -0.0009631352290998298 0.08490785235523189 0.10537743274219236
Li 2.9281658439 4.9749719132 8.2317907162 -0.15344317714670297 -0.4089398649208618 0.0625582813662485
Li 1.0155877694 5.3897161093 4.8017912285 0.10301073231937763 -0.14281912194071417 0.0032002520546197495
Li 1.3537511667 5.3873197597 10.5543145754 -0.311638267081506 -0.7774707305313383 -0.42339640643890675
Li 5.5263625628 10.0968693996 3.3546502543 0.1461852101466338 -0.002622525183347107 0.6781508167420536
Li 5.6642796121 10.254106968 9.582488084 -0.23780209898561663 0.029039067089015262 0.046305310097610845
B 0.7469812584 7.7083175532 1.1059863871 -0.35798137239499456 -1.6766135169440657 0.04757106416404397
B 1.2068125024 7.7700800052 6.9798013913 -1.0437940764374152 0.6006246014470075 1.0775066376693423
B 5.1719241376 7.3944535853 2.4854687558 0.25324722965365853 1.1928033862520766 0.8759311245472966
B 4.9644989912 7.5580356272 8.6315443431 0.6451283395877837 -2.026780021402998 -0.2499305066276607
B 6.9431874976 2.2999199948 5.3381986087 1.0437940764374152 -0.6006246014470075 -1.0775066376693423
B 7.4030187416 2.3616824468 11.2120136129 0.35798137239499456 1.6766135169440657 -0.04757106416404397
B 3.1855010088 2.5119643728 3.6864556569 -0.6451283395877837 2.026780021402998 0.2499305066276607
B 2.9780758624 2.6755464147 9.8325312442 -0.25324722965365853 -1.1928033862520766 -0.8759311245472966
S 1.6137309058 7.8059873559 5.1806837038 0.5850532296157279 -0.2866276043623616 0.0358879715825447
S 1.2259376166 7.3260135946 11.7005296699 -0.29567994423052685 1.070015214505893 0.10093456654922782
S 5.8146561352 7.502361319 4.1187509306 -0.8270048319282112 -0.1082357280817286 -0.5201308189297857
S 5.6032060212 7.837037684 10.3263695288 -0.7497161865615389 -0.5561537734261792 0.1344164998312076
S 6.9240623834 2.7439864054 0.6174703301 0.29567994423052685 -1.070015214505893 -0.10093456654922782
S 6.5362690942 2.2640126441 7.1373162962 -0.5850532296157279 0.2866276043623616 -0.0358879715825447
S 2.5467939788 2.232962316 1.9916304712 0.7497161865615389 0.5561537734261792 -0.1344164998312076
S 2.3353438648 2.567638681 8.1992490694 0.8270048319282112 0.1082357280817286 0.5201308189297857
S 0.1696449857 9.3673793515 1.5854165548 0.5442048287819758 1.4178538421991365 0.5645358267107182
S 0.58055599 9.323315906 7.6753860077 0.1211552641540824 -0.8453208563410818 0.45629881307742926
S 4.7529415991 5.8179798361 1.5560091256 -0.2885307348924729 -0.4405757461620149 -0.3148498319898579
S 4.8193970358 5.9592006803 7.6772752812 0.9885194731024451 0.809689737960318 0.9962788052110952
S 7.075236822 3.8050354142 4.3667523308 0.4232354553835366 -0.16332289799918295 0.25729234619381536
S 7.5711555714 3.5310657455 9.8887172461 -0.537213742285859 1.1971462365336372 0.7581879713449984
S 3.5999595185 1.0788082876 4.6531427556 0.4443146443204692 -2.0088326931776685 0.5020230538697101
S 3.4235289803 1.0889274379 10.7572306831 0.7640721979475555 0.302370468771807 0.5938206912580943
S 7.56944401 0.746684094 4.6426139923 -0.1211552641540824 0.8453208563410818 -0.45629881307742926
S 7.9803550143 0.7026206485 10.7325834452 -0.5442048287819758 -1.4178538421991365 -0.5645358267107182
S 3.3306029642 4.1107993197 4.6407247188 -0.9885194731024451 -0.809689737960318 -0.9962788052110952
S 3.3970584009 4.2520201639 10.7619908744 0.2885307348924729 0.4405757461620149 0.3148498319898579
S 0.5788444286 6.5389342545 2.4292827539 0.537213742285859 -1.1971462365336372 -0.7581879713449984
S 1.074763178 6.2649645858 7.9512476692 -0.4232354553835366 0.16332289799918295 -0.25729234619381536
S 4.7264710197 8.9810725621 1.5607693169 -0.7640721979475555 -0.302370468771807 -0.5938206912580943
S 4.5500404815 8.9911917124 7.6648572444 -0.4443146443204692 2.0088326931776685 -0.5020230538697101
56
Lattice="8.14999996437687 0.0 0.0 0.0 10.06999995598467 0.0 0.0 0.0 12.3179999461588" Properties=species:S:1:pos:R:3:forces:R:3 energy=-13276.575201199068 stress="1.0560671827994959 0.026773119831384348 -0.3543760751307962 0.026773119831384348 -2.8898787861953057 -0.6349054131442575 -0.3543760751307962 -0.6349054131442575 -2.1286101316490744" pbc="T T T"
Li 3.7885351852 7.3251569898 5.8667846024 0.09961353376569475 -0.18973738302235438 0.03756407370707801
Li 3.8921735767 7.2513734872 11.8834843659 0.416696111705767 0.5866974500615617 -0.4197852921055626
Li 7.8852989478 7.9593953978 3.543492408 -0.1994533246060312 -0.05313981641366309 -0.10535892079972167
Li 8.037559052 7.8656426775 9.6264202043 -0.15671002077215476 -0.6353059543349004 0.4388559352844258
Li 4.2578264233 2.8186265128 0.4345156341 -0.416696111705767 -0.5866974500615617 0.4197852921055626
Li 4.3614648148 2.7448430102 6.4512153976 -0.09961353376569475 0.18973738302235438 -0.03756407370707801
Li 0.112440948 2.2043573225 2.6915797957 0.15671002077215476 0.6353059543349004 -0.4388559352844258
Li 0.2647010522 2.1106046022 8.774507592 0.1994533246060312 0.05313981641366309 0.10535892079972167
Li 1.324964886 10.1514797008 5.5405700885 -0.8612514112783553 -0.38070298200557634 0.34350426205198226
Li 1.4528325418 9.9091695907 11.7827844892 -0.5937181042435693 -0.19422112975494163 0.2760130622379202
Li 5.5911980241 4.7315153037 2.8717456425 -0.10365350809960974 -0.28079479982222316 0.8434123264944167
Li 5.4882476771 5.0538026618 9.8685899587 -0.16919992551300142 -0.1884083798191464 -0.3365358012633296
Li 6.6074322646 5.5769744177 0.4885064429 1.8340766138203404 -0.530734048200495 -0.9426314530413609
Li 7.122589974 4.9287472526 7.1251521644 -0.7693589001848087 -0.20144927195880802 -0.17778535305440596
Li 2.5437176865 -0.0147971885 2.5311031594 0.10147012732931725 0.08820400655626227 -0.26649355293268234
Li 2.9508161415 0.0541016554 8.2897382521 -0.5088984407253853 0.4142075409950202 0.23525696400620946
Li 6.6971674582 0.1608304093 0.5352155108 0.5937181042435693 0.19422112975494163 -0.2760130622379202
Li 6.825035114 -0.0814797008 6.7774299115 0.8612514112783553 0.38070298200557634 -0.34350426205198226
Li 2.6617523229 5.0161973382 2.4494100413 0.16919992551300142 0.1884083798191464 0.3365358012633296
Li 2.5588019759 5.3384846963 9.4462543575 0.10365350809960974 0.28079479982222316 -0.8434123264944167
Li 1.027410026 5.1412527474 5.1928478356 0.7693589001848087 0.20144927195880802 0.17778535305440596
Li 1.5425677354 4.4930255823 11.8294935571 -1.8340766138203404 0.530734048200495 0.9426314530413609
Li 5.1991838585 10.0158983446 4.0282617479 0.5088984407253853 -0.4142075409950202 -0.23525696400620946
Li 5.6062823135 10.0847971885 9.7868968406 -0.10147012732931725 -0.08820400655626227 0.26649355293268234
B 0.9809179842 7.4500332598 0.6326501415 0.6174241892391545 0.8207701639702716 -0.07657156470624531
B 0.8508648358 7.4622128125 7.0795623017 0.08553134486205707 0.9703872825627209 1.0591186223690854
B 5.0317730424 7.5275459135 2.3248491126 0.31388978208450313 0.9256650006566657 1.6218546768951536
B 5.2798012676 7.6004825395 8.3871498453 -0.8570797964646486 -2.249942773438671 0.5152961166211917
B 7.2991351642 2.6077871875 5.2384376983 -0.08553134486205707 -0.9703872825627209 -1.0591186223690854
B 7.1690820158 2.6199667402 11.6853498585 -0.6174241892391545 -0.8207701639702716 0.07657156470624531
B 2.8701987324 2.4695174605 3.9308501547 0.8570797964646486 2.249942773438671 -0.5152961166211917
B 3.1182269576 2.5424540865 9.9931508874 -0.31388978208450313 -0.9256650006566657 -1.6218546768951536
S 1.2556945997 7.608478766 5.2932941631 0.25420265157339555 -0.16146321911181535 -0.21938348755822085
S 1.7572655645 7.5741207147 11.2091089841 -0.7247358628592214 -0.6739007832831587 0.7591567630009644
S 5.5417276859 7.2745077199 4.1645244287 -0.41176473591982604 0.22994377940681066 -2.283110517919274
S 5.7959176768 7.2884631403 10.2028060571 -0.057853419765261364 1.7340614737471567 -0.536296886912936
S 6.3927344355 2.4958792853 1.1088910159 0.7247358628592214 0.6739007832831587 -0.7591567630009644
S 6.8943054003 2.461521234 7.0247058369 -0.25420265157339555 0.16146321911181535 0.21938348755822085
S 2.3540823232 2.7815368597 2.1151939429 0.057853419765261364 -1.7340614737471567 0.536296886912936
S 2.6082723141 2.7954922801 8.1534755713 0.41176473591982604 -0.22994377940681066 2.283110517919274
S 0.5132648548 9.0232710425 1.381418945 0.21367795262256836 -0.31052626498170444 0.2964312205624621
S 0.7029871116 9.2022008452 8.0790579874 0.18079380081620444 -0.05875279163696217 -1.5436862000404996
S 4.6097348614 6.0586152474 1.2555985839 -0.8998814643393701 0.5589745306601499 1.1009250162256956
S 4.799273524 5.9059258337 7.6162822658 0.42049105991225755 1.4670616706099633 0.3723890629537418
S 7.3266920447 4.0581811866 4.2408278161 0.14470116942523387 -0.26492852246297316 0.6606919981097005
S 7.4069199635 4.1800627685 10.720758622 0.5032877794948949 -0.1286068352191575 0.6688197692955797
S 3.161607727 0.8295142537 4.7771803834 0.1938850865770363 0.7467583895312226 -0.392841416949792
S 3.166636787 0.7898356719 10.6310323915 1.1268252806246812 1.5727923729209712 -0.4178381957120834
S 7.4470128884 0.8677991548 4.2389420126 -0.18079380081620444 0.05875279163696217 1.5436862000404996
S 7.6367351452 1.0467289575 10.936581055 -0.21367795262256836 0.31052626498170444 -0.2964312205624621
S 3.350726476 4.1640741663 4.7017177342 -0.42049105991225755 -1.4670616706099633 -0.3723890629537418
S 3.5402651386 4.0113847526 11.0624014161 0.8998814643393701 -0.5589745306601499 -1.1009250162256956
S 0.7430800365 5.8899372315 1.597241378 -0.5032877794948949 0.1286068352191575 -0.6688197692955797
S 0.8233079553 6.0118188134 8.0771721839 -0.14470116942523387 0.26492852246297316 -0.6606919981097005
S 4.983363213 9.2801643281 1.6869676085 -1.1268252806246812 -1.5727923729209712 0.4178381957120834
S 4.988392273 9.2404857463 7.5408196166 -0.1938850865770363 -0.7467583895312226 0.392841416949792
56
Lattice="8.14999996437687 0.0 0.0 0.0 10.06999995598467 0.0 0.0 0.0 12.3179999461588" Properties=species:S:1:pos:R:3:forces:R:3 energy=-13275.276093425939 stress="-1.0041390987309318 0.8264361934764687 0.5613528861349598 0.8264361934764687 0.9199950078322953 -0.14372163777616764 0.5613528861349598 -0.14372163777616764 0.8952813587571713" pbc="T T T"
Li 4.1592042865 7.488816998 6.026248897 0.39622138911256466 0.4592406692683957 -0.19498191916842442
Li 3.33662237 7.7708432051 12.2718039772 0.6450334658826214 0.19041718268752789 0.14685755361275663
Li 8.1391277101 7.5445467473 3.8677232939 -0.1267111608880969 -0.09121965340679936 -0.46598801518864835
Li 7.7177287551 7.7705615286 9.431865789 0.1618493988005788 -0.040003279237902915 -0.4633580338062506
Li 4.81337763 2.2991567949 0.0461960228 -0.6450334658826214 -0.19041718268752789 -0.14685755361275663
Li 3.9907957135 2.581183002 6.291751103 -0.39622138911256466 -0.4592406692683957 0.19498191916842442
Li 0.4322712449 2.2994384714 2.886134211 -0.1618493988005788 0.040003279237902915 0.4633580338062506
Li 0.0108722899 2.5254532527 8.4502767061 0.1267111608880969 0.09121965340679936 0.46598801518864835
Li 1.8439666712 9.3937638433 5.3898030201 0.10381883003028546 0.35045446800847624 -0.16742277903581562
Li 1.122027019 11.0899557462 12.4502704065 0.11149485839781761 -0.2774557081990733 -0.11642186330845297
Li 6.4456230556 4.4052562799 2.9774731248 -0.26530081819488355 0.48511522263617207 0.3393347041207724
Li 5.8149317369 4.6517536434 9.3552948345 0.01193428935641399 0.23493377634390875 -0.29942835547052854
Li 6.4965784872 5.0384788106 0.1003769851 0.019531641968445722 0.4210826707403832 -0.26263664114097746
Li 6.0732501494 5.2149674831 6.1924701606 0.2147076794225002 0.25682774785986356 -0.1687867492414682
Li 3.0917330965 0.1264122191 2.4971054592 -0.6371388937498104 -0.2476738494184217 -1.0232715313261636
Li 2.5557362342 -0.0054771898 8.8434927196 -0.1277899957576385 -0.0533010245793453 -0.3716874089120404
Li 7.027972981 -1.0199557462 -0.1322704065 -0.11149485839781761 0.2774557081990733 0.11642186330845297
Li 6.3060333288 0.6762361567 6.9281969799 -0.10381883003028546 -0.35045446800847624 0.16742277903581562
Li 2.3350682631 5.4182463566 2.9627051655 -0.01193428935641399 -0.23493377634390875 0.29942835547052854
Li 1.7043769444 5.6647437201 9.3405268752 0.26530081819488355 -0.48511522263617207 -0.3393347041207724
Li 2.0767498506 4.8550325169 6.1255298394 -0.2147076794225002 -0.25682774785986356 0.1687867492414682
Li 1.6534215128 5.0315211894 12.2176230149 -0.019531641968445722 -0.4210826707403832 0.26263664114097746
Li 5.5942637658 10.0754771898 3.4745072804 0.1277899957576385 0.0533010245793453 0.3716874089120404
Li 5.0582669035 9.9435877809 9.8208945408 0.6371388937498104 0.2476738494184217 1.0232715313261636
B 0.7884024887 7.381515703 0.6656277061 -0.7388489050003102 2.258464694732989 1.3058900145920613
B 0.9713940934 7.3487499579 6.8348393408 -0.42764926811123466 -2.025573402708346 -0.290430522988527
B 4.9739240463 7.7768320397 2.3609565366 0.5967458352787748 0.667884659090498 0.6309206808518447
B 4.8295913498 7.4966691213 8.6095744443 -0.2703630631296798 0.28494301759752927 -1.2403302274424408
B 7.1786059066 2.7212500421 5.4831606592 0.42764926811123466 2.025573402708346 0.290430522988527
B 7.3615975113 2.688484297 11.6523722939 0.7388489050003102 -2.258464694732989 -1.3058900145920613
B 3.3204086502 2.5733308787 3.7084255557 0.2703630631296798 -0.28494301759752927 1.2403302274424408
B 3.1760759537 2.2931679603 9.9570434634 -0.5967458352787748 -0.667884659090498 -0.6309206808518447
S 1.9959193983 7.008024269 5.2981946535 -0.7953756355551725 0.5552942536528527 -0.5949290938135265
S 1.2737537974 7.1143325458 11.3090626412 0.5908346120934479 0.777993178685511 -1.5187182176331628
S 5.7383230001 7.5999443665 4.0049783899 0.39073439794219106 0.7681947046916523 0.7378148073250728
S 5.5414256083 7.4985034313 10.2558663513 0.5205049144338807 -0.6293600212574411 1.9736882846176964
S 6.8762462026 2.9556674542 1.0089373588 -0.5908346120934479 -0.777993178685511 1.5187182176331628
S 6.1540806017 3.061975731 7.0198053465 0.7953756355551725 -0.5552942536528527 0.5949290938135265
S 2.6085743917 2.5714965687 2.0621336487 -0.5205049144338807 0.6293600212574411 -1.9736882846176964
S 2.4116769999 2.4700556335 8.3130216101 -0.39073439794219106 -0.7681947046916523 -0.7378148073250728
S 0.6272822755 9.0765267765 1.6366874185 0.8109120403840073 -0.27355663031618516 -0.9374506802526898
S 0.8051380222 8.9148312752 7.3662855518 -0.6217940361034847 1.017267748428483 1.321301463809219
S 4.1949318459 6.3136603189 1.832856307 -0.9142019945023179 -1.733068513721854 -1.8529122581739508
S 4.2291128554 5.9870081983 7.8114000411 0.2331368323726918 0.2362046726165837 0.4035875995540249
S 8.1230042036 4.2612448593 4.8144916224 -1.0504182665181754 -1.63565533000705 -0.6018296774797867
S 8.0566391071 3.9562563018 10.7106165107 0.12151547570132447 1.9636936354557104 -1.023203654203771
S 3.4228131548 0.9512029856 4.4520852512 0.7082003273575938 0.34004381436152453 1.4392595612324268
S 3.2451870785 0.7374315478 11.0175772027 -0.23194589740707766 0.1746720042852736 -0.044265653991778245
S 7.3448619778 1.1551687248 4.9517144482 0.6217940361034847 -1.017267748428483 -1.321301463809219
S 7.5227177245 0.9934732235 10.6813125815 -0.8109120403840073 0.27355663031618516 0.9374506802526898
S 3.9208871446 4.0829918017 4.5065999589 -0.2331368323726918 -0.2362046726165837 -0.4035875995540249
S 3.9550681541 3.7563396811 10.485143693 0.9142019945023179 1.733068513721854 1.8529122581739508
S 0.0933608929 6.1137436982 1.6073834893 -0.12151547570132447 -1.9636936354557104 1.023203654203771
S 0.0269957964 5.8087551407 7.5035083776 1.0504182665181754 1.63565533000705 0.6018296774797867