ITEM: TIMESTEP
0
ITEM: NUMBER OF ATOMS
56
ITEM: BOX BOUNDS pp pp pp
0.0000000000000000e+00 8.1500000000000004e+00
0.0000000000000000e+00 1.0070000000000000e+01
0.0000000000000000e+00 1.2318000000000000e+01
ITEM: ATOMS id mass type element x y z fx fy fz
1 6.941 1 Li 4.0261 7.5525 5.83257 0.0338095 7.95886e-07 0.0849871
2 6.941 1 Li 4.0261 7.5525 11.9916 0.0338101 1.43215e-06 0.084987
3 6.941 1 Li 8.1011 7.5525 3.40593 0.0338076 -8.10907e-08 -0.0849884
4 6.941 1 Li 8.1011 7.5525 9.56493 0.0338084 1.64986e-06 -0.0849886
5 6.941 1 Li 4.1239 2.5175 0.326427 -0.0338088 3.63593e-07 -0.0849888
6 6.941 1 Li 4.1239 2.5175 6.48543 -0.0338092 8.05998e-07 -0.0849876
7 6.941 1 Li 0.0489 2.5175 2.75307 -0.033808 -7.95389e-07 0.0849873
8 6.941 1 Li 0.0489 2.5175 8.91207 -0.0338097 1.20425e-06 0.0849852
9 6.941 1 Li 1.40995 9.99951 5.53078 -0.0503114 -0.0366823 0.0120425
10 6.941 1 Li 1.40995 9.99951 11.6898 -0.0503128 -0.0366839 0.0120454
11 6.941 1 Li 5.48495 5.10549 3.70772 -0.0503145 0.0366787 -0.0120418
12 6.941 1 Li 5.48495 5.10549 9.86672 -0.0503145 0.0366794 -0.0120432
13 6.941 1 Li 6.74005 4.96451 0.628218 0.0503122 -0.0366832 -0.0120443
14 6.941 1 Li 6.74005 4.96451 6.78722 0.0503145 -0.0366855 -0.0120444
15 6.941 1 Li 2.66505 0.07049 2.45128 0.0503114 0.0366823 0.0120437
16 6.941 1 Li 2.66505 0.07049 8.61028 0.0503119 0.0366823 0.0120442
17 6.941 1 Li 6.74005 0.07049 0.628218 0.0503126 0.0366817 -0.0120447
18 6.941 1 Li 6.74005 0.07049 6.78722 0.050315 0.0366837 -0.0120437
19 6.941 1 Li 2.66505 4.96451 2.45128 0.050312 -0.0366822 0.0120448
20 6.941 1 Li 2.66505 4.96451 8.61028 0.0503121 -0.0366842 0.0120445
21 6.941 1 Li 1.40995 5.10549 5.53078 -0.0503132 0.0366786 0.0120441
22 6.941 1 Li 1.40995 5.10549 11.6898 -0.0503135 0.0366785 0.012044
23 6.941 1 Li 5.48495 9.99951 3.70772 -0.0503127 -0.0366825 -0.0120443
24 6.941 1 Li 5.48495 9.99951 9.86672 -0.0503135 -0.0366825 -0.0120434
25 10.811 2 B 0.96822 7.5525 0.720603 -0.100593 4.72212e-06 0.160205
26 10.811 2 B 0.96822 7.5525 6.8796 -0.100595 4.16557e-06 0.160205
27 10.811 2 B 5.04322 7.5525 2.3589 -0.100593 4.4805e-06 -0.160203
28 10.811 2 B 5.04322 7.5525 8.5179 -0.100592 4.49772e-06 -0.16019
29 10.811 2 B 7.18178 2.5175 5.4384 0.10059 4.5349e-06 -0.160192
30 10.811 2 B 7.18178 2.5175 11.5974 0.100593 3.52274e-06 -0.160203
31 10.811 2 B 3.10678 2.5175 3.8001 0.100593 3.22608e-06 0.160203
32 10.811 2 B 3.10678 2.5175 9.9591 0.100593 4.59807e-06 0.160196
33 32.065 3 S 1.6357 7.5525 5.18773 0.13262 -2.66843e-07 -0.0610462
34 32.065 3 S 1.6357 7.5525 11.3467 0.132622 -2.19935e-07 -0.0610457
35 32.065 3 S 5.7107 7.5525 4.05077 0.132627 2.55671e-06 0.0610571
36 32.065 3 S 5.7107 7.5525 10.2098 0.132622 3.04302e-06 0.0610498
37 32.065 3 S 6.51429 2.5175 0.971274 -0.132624 8.84013e-07 0.0610498
38 32.065 3 S 6.51429 2.5175 7.13027 -0.132622 1.42092e-06 0.0610474
39 32.065 3 S 2.43929 2.5175 2.10823 -0.132621 -7.1174e-07 -0.0610446
40 32.065 3 S 2.43929 2.5175 8.26723 -0.13262 6.54979e-07 -0.0610415
41 32.065 3 S 0.62592 9.12946 1.6038 -0.0248083 0.0228104 -0.114701
42 32.065 3 S 0.62592 9.12946 7.7628 -0.0248106 0.0228096 -0.114704
43 32.065 3 S 4.70092 5.97554 1.4757 -0.0248172 -0.0228218 0.114696
44 32.065 3 S 4.70092 5.97554 7.6347 -0.0248155 -0.0228212 0.114695
45 32.065 3 S 7.52408 4.09446 4.5552 0.0248105 0.0228159 0.114699
46 32.065 3 S 7.52408 4.09446 10.7142 0.0248103 0.0228093 0.114699
47 32.065 3 S 3.44908 0.940538 4.6833 0.0248125 -0.0228117 -0.114708
48 32.065 3 S 3.44908 0.940538 10.8423 0.0248156 -0.022816 -0.114705
49 32.065 3 S 7.52408 0.940538 4.5552 0.0248131 -0.0228181 0.114696
50 32.065 3 S 7.52408 0.940538 10.7142 0.0248119 -0.0228116 0.114696
51 32.065 3 S 3.44908 4.09446 4.6833 0.0248124 0.0228121 -0.114709
52 32.065 3 S 3.44908 4.09446 10.8423 0.0248139 0.0228134 -0.114704
53 32.065 3 S 0.62592 5.97554 1.6038 -0.024809 -0.0228129 -0.1147
54 32.065 3 S 0.62592 5.97554 7.7628 -0.0248111 -0.0228118 -0.114703
55 32.065 3 S 4.70092 9.12946 1.4757 -0.0248143 0.0228142 0.114704
56 32.065 3 S 4.70092 9.12946 7.6347 -0.0248133 0.0228146 0.114706
ITEM: TIMESTEP
1000
ITEM: NUMBER OF ATOMS
56
ITEM: BOX BOUNDS pp pp pp
0.0000000000000000e+00 8.1500000000000004e+00
0.0000000000000000e+00 1.0070000000000000e+01
0.0000000000000000e+00 1.2318000000000000e+01
ITEM: ATOMS id mass type element x y z fx fy fz
1 6.941 1 Li 2.56754 5.18499 3.03677 0.288528 0.0317247 -0.665312
2 6.941 1 Li 4.17838 7.64475 12.5019 -0.174309 0.0363164 -0.373756
3 6.941 1 Li 6.58858 8.52393 2.52186 -0.335476 -2.07248 -0.172276
4 6.941 1 Li 7.75175 6.65653 9.56827 -0.0574774 0.207201 -0.139812
5 6.941 1 Li 4.76 3.64348 11.5662 -0.475939 -0.150334 -0.387247
6 6.941 1 Li 4.07878 2.16398 6.32685 -0.367877 -0.173514 0.0870118
7 6.941 1 Li 8.01191 2.64214 2.34314 0.443625 -0.0601502 0.826121
8 6.941 1 Li 8.18118 2.86777 9.13613 0.232045 0.225564 -0.432394
9 6.941 1 Li 3.98361 7.39885 6.04626 0.392848 -0.429785 -0.162134
10 6.941 1 Li 1.64295 9.17699 10.7265 -0.259394 -0.168003 0.180955
11 6.941 1 Li 5.84917 5.04656 3.74829 -0.126252 0.0436902 -0.139939
12 6.941 1 Li 1.82073 1.45173 12.3313 0.689716 0.208781 -0.181274
13 6.941 1 Li 6.58725 5.27358 0.720847 0.368294 -0.151716 -0.0323291
14 6.941 1 Li 6.02552 4.01213 6.36467 0.0603237 0.941364 0.193422
15 6.941 1 Li 2.4067 0.374476 2.35342 0.299652 -0.325262 0.252818
16 6.941 1 Li 2.30475 0.0430107 8.12951 -0.406337 0.439972 -0.130215
17 6.941 1 Li 5.95196 0.478738 12.0913 0.147834 0.183372 0.108778
18 6.941 1 Li 6.56167 9.75832 6.39376 0.48527 -0.48983 -0.135367
19 6.941 1 Li 0.522955 8.53176 3.65765 0.211559 -0.444114 0.0647545
20 6.941 1 Li 2.6955 6.12166 9.63228 0.903916 0.0816259 0.0295972
21 6.941 1 Li 2.05865 5.13039 5.72702 -0.690162 0.225649 0.404705
22 6.941 1 Li 0.847999 4.86479 0.0645856 0.383449 -0.101471 0.16416
23 6.941 1 Li 5.33358 0.844861 3.94421 0.315559 -0.252313 -0.0642262
24 6.941 1 Li 5.64813 -0.0142655 9.24626 0.101211 -0.0584767 0.00238975
25 10.811 2 B 0.934769 7.60618 0.81416 1.26861 -1.50507 0.532061
26 10.811 2 B 1.13255 7.51789 7.1893 0.25188 1.3634 -1.53878
27 10.811 2 B 5.50694 7.65986 2.71246 1.09918 0.376401 0.080369
28 10.811 2 B 4.94224 7.77715 8.32294 0.569877 -3.47383 2.19568
29 10.811 2 B 7.65157 2.17922 5.39996 -0.776394 0.899667 -0.828132
30 10.811 2 B 7.55963 3.01204 11.5277 -2.11825 -0.970553 0.33343
31 10.811 2 B 2.88238 2.66053 3.76485 0.848241 -1.6097 -0.571222
32 10.811 2 B 2.79144 2.54751 9.48904 0.0585455 -0.173881 0.0979188
33 32.065 3 S 1.8257 7.88104 5.44594 -0.504414 -0.308417 0.780746
34 32.065 3 S 1.71372 6.80654 11.698 0.338009 1.4346 -0.77843
35 32.065 3 S 6.33365 7.38358 4.25216 0.308753 -0.0282854 1.2787
36 32.065 3 S 5.41757 7.75176 10.1775 -0.107585 0.928525 -0.360102
37 32.065 3 S 6.36273 2.78188 0.783157 0.957117 0.111642 -0.93124
38 32.065 3 S 6.55241 1.91136 6.88229 0.203878 0.0958811 0.208428
39 32.065 3 S 2.57464 2.6692 1.9461 -0.771613 1.07144 -0.0157222
40 32.065 3 S 2.10877 2.62547 7.75674 0.621507 -1.20644 0.82128
41 32.065 3 S 0.838777 9.36861 0.955554 -0.65083 0.288975 0.404241
42 32.065 3 S 0.255138 8.66454 8.27845 -0.169823 1.20944 -0.000596807
43 32.065 3 S 4.86637 6.13584 1.78944 -0.0982863 0.236605 0.388877
44 32.065 3 S 4.99916 5.84917 7.81964 -0.176312 1.78817 -0.658302
45 32.065 3 S 7.75865 3.99348 4.66242 0.481202 -1.64882 0.590539
46 32.065 3 S 7.04062 4.68392 10.7506 0.732793 -1.60227 0.410269
47 32.065 3 S 3.01819 0.984544 4.47967 0.53218 0.332228 0.642586
48 32.065 3 S 3.82235 1.07458 10.3666 -1.13035 1.20427 -0.445098
49 32.065 3 S 8.09176 0.713936 4.41205 -1.21719 0.521303 -0.135825
50 32.065 3 S 0.115397 1.34813 10.9195 -1.38017 1.47374 -0.201937
51 32.065 3 S 3.69993 3.99473 4.64781 0.531408 0.680647 0.36876
52 32.065 3 S 2.34835 4.01874 10.4884 0.930633 -1.05686 0.545543
53 32.065 3 S 0.782472 6.31515 2.19835 -1.11212 0.964357 -0.645019
54 32.065 3 S 1.43982 5.98631 7.81069 -0.476454 -2.15883 0.530061
55 32.065 3 S 4.79256 9.18327 2.22758 -1.97035 1.91366 -1.38035
56 32.065 3 S 4.29662 9.12314 7.50806 0.495727 1.1002 -1.01716
ITEM: TIMESTEP
2000
ITEM: NUMBER OF ATOMS
56
ITEM: BOX BOUNDS pp pp pp
0.0000000000000000e+00 8.1500000000000004e+00
0.0000000000000000e+00 1.0070000000000000e+01
0.0000000000000000e+00 1.2318000000000000e+01
ITEM: ATOMS id mass type element x y z fx fy fz
1 6.941 1 Li 2.48573 6.0444 3.19926 0.422289 -0.680178 -0.38235
2 6.941 1 Li 3.37878 7.75957 0.219907 0.14667 0.74491 -0.397196
3 6.941 1 Li 6.25666 7.53991 2.21703 -0.566449 0.0915205 -0.710086
4 6.941 1 Li 6.23964 5.03873 11.9104 -0.283466 0.699695 -0.183158
5 6.941 1 Li 4.44254 2.86982 0.313545 -0.510631 -0.247125 0.0899577
6 6.941 1 Li 4.54318 1.26749 5.8677 -0.0979775 0.648853 0.260775
7 6.941 1 Li 0.0200731 1.97312 2.58727 -0.0712103 -0.410908 0.134011
8 6.941 1 Li 0.948042 2.78241 9.02045 -0.432329 -0.0481531 -0.23282
9 6.941 1 Li 3.86313 8.58356 5.4059 -0.482973 -0.421925 0.089737
10 6.941 1 Li 7.64418 8.73142 9.23261 -0.072909 0.0329703 -0.249085
11 6.941 1 Li 6.53584 5.49253 5.53191 -0.222474 0.295616 0.145774
12 6.941 1 Li 1.16748 0.133569 11.3704 0.100478 0.50537 0.33035
13 6.941 1 Li 0.463801 4.19892 1.48778 -0.0738667 0.223347 -0.372039
14 6.941 1 Li 1.12356 3.59462 6.16058 -0.162508 -0.163214 -0.155468
15 6.941 1 Li 2.85885 0.555562 2.59812 0.279983 -0.250356 -0.624959
16 6.941 1 Li 1.81064 0.470263 6.93609 -0.386581 0.00943692 0.0785888
17 6.941 1 Li 4.96656 9.77548 10.7583 0.522455 -1.07173 0.146942
18 6.941 1 Li 6.97124 9.89935 5.58513 -0.262338 -0.157764 -0.242763
19 6.941 1 Li 0.331274 7.80077 3.31474 0.333125 0.496818 0.894939
20 6.941 1 Li 3.40867 5.4535 9.51991 0.151666 0.265533 0.157452
21 6.941 1 Li 3.11311 5.22444 6.83454 -0.338468 0.20902 -0.508678
22 6.941 1 Li 1.10286 5.94652 11.4365 -0.182573 -0.856671 -0.197179
23 6.941 1 Li 5.86251 3.95828 3.24563 -0.777822 -0.0981579 -0.420717
24 6.941 1 Li 5.53435 1.35871 9.07484 0.285794 0.688721 -0.363545
25 10.811 2 B 0.656278 7.93738 0.745823 -0.694858 0.919402 1.23473
26 10.811 2 B 0.873447 7.06899 6.95956 0.558595 0.378178 -1.40417
27 10.811 2 B 5.32227 7.89602 2.53659 -2.51189 0.0892 -0.825203
28 10.811 2 B 5.17616 7.57975 8.76308 -0.614987 0.251724 2.37512
29 10.811 2 B 7.00944 2.35408 5.21098 0.402787 0.537003 -1.44295
30 10.811 2 B 7.51144 2.56411 11.4506 -0.288892 -1.3468 0.315457
31 10.811 2 B 3.11801 2.69545 3.91275 -1.90316 -0.0414849 -0.418562
32 10.811 2 B 3.55223 2.28585 9.9028 0.154815 0.805003 0.186171
33 32.065 3 S 1.64598 6.71895 5.20722 0.0910961 -0.356968 1.12308
34 32.065 3 S 0.592222 8.03275 11.3565 0.414979 0.0737073 -1.89872
35 32.065 3 S 5.80511 7.86368 4.3611 0.286657 -0.331917 -0.8935
36 32.065 3 S 5.07565 7.28142 10.7764 0.0768991 0.244825 -1.86422
37 32.065 3 S 6.78751 3.08422 0.713416 -1.09287 -0.506964 1.00923
38 32.065 3 S 7.50663 1.87461 6.85462 -0.0618935 0.345949 0.445377
39 32.065 3 S 2.25692 3.34072 2.35352 1.49929 -1.35477 -0.0576179
40 32.065 3 S 2.98078 2.22563 8.06137 0.589388 0.164659 1.39717
41 32.065 3 S 0.957379 9.52859 1.64909 0.0406492 -0.440954 0.203424
42 32.065 3 S 0.255805 8.76364 6.83766 0.354444 -0.171283 1.18398
43 32.065 3 S 4.34802 6.38429 1.59017 1.58638 -0.0108003 2.05295
44 32.065 3 S 4.93219 6.13899 7.83219 0.428091 -0.57919 -1.13843
45 32.065 3 S 7.81363 3.80932 4.25529 -0.0250001 0.207219 1.19883
46 32.065 3 S 0.729566 3.60316 11.1143 0.854636 0.621769 -0.612799
47 32.065 3 S 2.44501 1.14488 4.72331 0.331461 -0.204665 -0.0720933
48 32.065 3 S 3.37052 1.07192 11.2615 -0.841186 0.406766 -0.554056
49 32.065 3 S 5.99633 1.3685 4.02674 0.441424 -0.174835 0.218828
50 32.065 3 S 7.08623 0.856428 10.7498 0.718171 1.21073 0.150263
51 32.065 3 S 3.977 3.87973 4.8147 1.09026 1.383 1.23145
52 32.065 3 S 4.67376 3.69398 10.4481 -0.640233 -0.574156 -0.945308
53 32.065 3 S 0.056877 6.41155 1.58123 0.432269 -0.191457 0.000322783
54 32.065 3 S 0.866396 5.94232 8.32925 0.586598 -0.518098 -0.173635
55 32.065 3 S 4.93661 9.43865 1.48193 0.618396 -1.03301 1.14586
56 32.065 3 S 5.33593 9.29747 8.22897 -0.200194 -0.307409 -0.45946
ITEM: TIMESTEP
3000
ITEM: NUMBER OF ATOMS
56
ITEM: BOX BOUNDS pp pp pp
0.0000000000000000e+00 8.1500000000000004e+00
0.0000000000000000e+00 1.0070000000000000e+01
0.0000000000000000e+00 1.2318000000000000e+01
ITEM: ATOMS id mass type element x y z fx fy fz
1 6.941 1 Li 0.948522 4.49882 4.79365 -0.0917535 0.223983 0.258035
2 6.941 1 Li 2.02321 8.61622 9.93686 0.470292 -0.0576308 -0.504842
3 6.941 1 Li 5.82097 8.19466 2.64544 1.25746 0.97157 0.414076
4 6.941 1 Li 6.68089 6.98006 10.6403 -0.203077 -0.429407 -0.130496
5 6.941 1 Li 3.32715 1.65391 0.832458 0.221726 0.504558 0.363175
6 6.941 1 Li 5.2108 2.40424 3.12602 -0.0747054 -0.421239 0.02715
7 6.941 1 Li 1.14297 4.81628 11.9154 -0.460457 -0.326185 -0.50851
8 6.941 1 Li 0.645167 1.05397 10.2596 0.682638 -0.463084 -1.15541
9 6.941 1 Li 2.71268 5.19069 7.87329 0.00176755 0.154923 -0.0361516
10 6.941 1 Li 6.01215 9.32265 -0.131607 -0.0478033 -0.00906406 0.378693
11 6.941 1 Li 7.91915 4.13964 8.78626 -0.18058 0.189983 -0.163531
12 6.941 1 Li 1.38175 9.94156 0.292999 -0.304832 -0.432558 0.191692
13 6.941 1 Li 6.97966 4.59044 1.23917 0.164663 -0.214784 -0.0885819
14 6.941 1 Li 2.34468 2.00545 6.50882 -0.344653 -0.223117 -0.141027
15 6.941 1 Li 2.65439 8.16778 3.18835 -0.475871 0.217829 0.327189
16 6.941 1 Li 4.36714 9.74817 5.67606 -0.449091 0.172743 -0.193217
17 6.941 1 Li 5.02323 0.0731588 9.08866 -0.221844 -0.0741166 0.105505
18 6.941 1 Li 7.08847 6.71569 6.79998 0.360305 0.00872785 -0.083276
19 6.941 1 Li 7.56128 6.54362 3.15844 -0.0185436 -0.210678 0.317512
20 6.941 1 Li 4.99186 3.89066 9.74222 0.375173 0.192249 -0.0746263
21 6.941 1 Li 5.38096 3.09074 6.89243 -0.0809076 -0.104235 -0.174109
22 6.941 1 Li 3.24353 6.61298 12.1837 0.172512 -0.124472 0.0285191
23 6.941 1 Li 3.82833 5.19487 3.50005 0.52603 1.01252 0.695955
24 6.941 1 Li 7.86434 0.497297 6.84426 -0.0648056 0.025582 -0.0519618
25 10.811 2 B 0.353554 7.41319 1.0984 1.42734 -0.664003 -0.297155
26 10.811 2 B 1.37957 7.7252 7.21564 1.09249 1.88598 -1.41755
27 10.811 2 B 4.89552 7.9091 2.61184 1.42719 0.859586 -2.28166
28 10.811 2 B 5.15806 7.32197 8.42514 -1.13233 1.00177 1.46853
29 10.811 2 B 7.28451 2.57397 4.96513 -0.754598 1.04611 -0.0581659
30 10.811 2 B 7.15915 2.57833 10.8482 -0.153083 0.406592 0.646976
31 10.811 2 B 3.02706 3.06232 3.94622 -0.21306 -2.25884 1.06832
32 10.811 2 B 2.98933 2.63055 10.1833 0.69262 -0.199083 0.263773
33 32.065 3 S 1.323 6.98942 5.5355 -0.444884 0.0432488 0.274642
34 32.065 3 S 0.416034 7.87017 11.6387 -0.131691 0.502631 0.167344
35 32.065 3 S 4.78337 7.15562 4.09733 -0.808986 -0.479028 3.05838
36 32.065 3 S 4.39077 7.78995 10.2048 0.890114 0.319115 -0.818598
37 32.065 3 S 7.91246 1.54629 12.129 -0.781684 0.314766 0.939524
38 32.065 3 S 7.88919 3.16628 6.53658 1.58241 0.581286 0.386405
39 32.065 3 S 3.15763 3.72004 2.29531 -0.01805 -1.6754 -0.848375
40 32.065 3 S 3.28522 2.83547 8.41607 -0.194754 -0.357206 -0.0510839
41 32.065 3 S 0.358258 8.56738 2.44062 -0.399167 1.3158 0.19822
42 32.065 3 S 2.06072 9.60621 7.42981 -0.851907 -0.910111 0.105888
43 32.065 3 S 5.73399 6.662 1.33919 -0.960644 0.0576758 -1.30803
44 32.065 3 S 5.31322 5.63105 8.08509 0.290646 -1.15561 -0.458991
45 32.065 3 S 7.16715 3.58309 3.45617 0.942298 0.823588 -0.772215
46 32.065 3 S 6.90964 4.42076 11.0638 0.564449 0.0544317 0.54212
47 32.065 3 S 2.74261 1.16728 4.33597 -0.272319 1.63811 -0.632033
48 32.065 3 S 3.12761 0.897472 10.9309 -0.636522 0.378422 -0.152043
49 32.065 3 S 6.11913 1.32848 5.11926 -0.704216 -2.10459 0.224097
50 32.065 3 S 6.66077 1.98323 9.23376 0.0665172 -0.709958 -0.201288
51 32.065 3 S 3.27348 4.03123 5.49382 -0.00404225 0.266401 -0.65003
52 32.065 3 S 3.16566 4.24152 11.0319 -0.471179 -0.267354 0.758547
53 32.065 3 S 1.16574 5.78036 1.5643 -0.621316 0.502684 0.0265059
54 32.065 3 S 0.970184 6.92723 8.65328 -0.830548 -1.55504 1.03694
55 32.065 3 S 4.56117 9.75647 2.29381 -0.397121 -0.838894 -1.21962
56 32.065 3 S 5.60455 8.55572 7.23974 0.5924 0.592836 0.198875
ITEM: TIMESTEP
4000
ITEM: NUMBER OF ATOMS
56
ITEM: BOX BOUNDS pp pp pp
0.0000000000000000e+00 8.1500000000000004e+00
0.0000000000000000e+00 1.0070000000000000e+01
0.0000000000000000e+00 1.2318000000000000e+01
ITEM: ATOMS id mass type element x y z fx fy fz
1 6.941 1 Li 1.90144 7.01785 3.647 0.337551 0.380244 0.67443
2 6.941 1 Li 1.94562 8.6806 9.42433 0.349432 0.199169 0.217775
3 6.941 1 Li 6.28917 8.25852 2.6325 -1.41561 0.691513 -0.7089
4 6.941 1 Li 5.48612 9.42813 10.8049 -0.0822718 0.245854 -0.0966722
5 6.941 1 Li 2.6904 1.8927 0.330027 0.00643109 0.127934 0.329135
6 6.941 1 Li 6.29162 1.702 1.93745 -0.41815 -0.0390517 -0.347317
7 6.941 1 Li 7.95673 5.33144 9.60704 0.114257 0.145584 0.252582
8 6.941 1 Li 0.354029 0.772498 8.58866 -0.0115201 0.00922377 -0.0894654
9 6.941 1 Li 3.11076 5.57502 8.16066 -0.590764 -0.0550056 -0.168966
10 6.941 1 Li 4.11896 7.2225 12.1544 -0.83557 0.680463 0.85572
11 6.941 1 Li 4.37828 3.24811 5.86122 0.119309 0.146268 0.557331
12 6.941 1 Li 0.590374 9.46215 12.0604 -0.0565093 0.526489 -0.0374627
13 6.941 1 Li 0.775116 4.29744 0.250255 -0.44954 -0.147536 -0.190835
14 6.941 1 Li 1.48212 2.80124 6.47159 0.217796 -0.00263365 -0.0367214
15 6.941 1 Li 3.21274 0.0555579 3.24558 0.0157446 0.625197 -0.557095
16 6.941 1 Li 4.1977 9.74277 6.83619 -0.559426 0.395506 0.0302712
17 6.941 1 Li 6.04477 2.52189 8.88375 -0.156777 -0.389861 0.350005
18 6.941 1 Li 7.56894 5.28853 6.36773 0.149141 0.379758 0.556441
19 6.941 1 Li 7.6189 6.10663 3.19502 -0.841107 -0.404625 0.326274
20 6.941 1 Li 4.82684 4.68599 10.1548 -0.44403 0.303857 -0.0619329
21 6.941 1 Li 0.453358 0.176848 4.54733 0.737527 -0.372574 0.417247
22 6.941 1 Li 3.34221 4.85571 0.972613 0.523695 0.0796623 1.0125
23 6.941 1 Li 4.84308 5.93483 4.81607 -0.485131 0.31756 0.0119346
24 6.941 1 Li 6.21053 8.57122 5.72368 -0.305404 0.262738 -0.00998827
25 10.811 2 B 1.15675 7.22318 1.12117 0.618868 0.0552408 0.102445
26 10.811 2 B 0.804575 8.10481 7.00748 0.886073 -0.237813 0.721483
27 10.811 2 B 5.11484 8.1453 2.37776 -0.163329 -0.156899 -1.77536
28 10.811 2 B 5.37438 7.36342 8.62401 1.0461 1.85042 -1.76958
29 10.811 2 B 6.65105 2.58051 5.27249 0.794106 0.0782972 -1.83458
30 10.811 2 B 7.40347 2.5095 11.6193 0.481356 -2.33425 -0.190236
31 10.811 2 B 3.06414 3.0264 4.0139 0.89187 -0.647715 0.790546
32 10.811 2 B 2.81272 2.61963 10.0491 0.0717345 -0.527883 0.178018
33 32.065 3 S 0.00695968 7.55413 5.54915 0.00493311 -0.479793 -1.85355
34 32.065 3 S 1.73011 7.27999 11.7075 -0.432729 0.137929 0.0962257
35 32.065 3 S 4.41327 8.38622 3.97088 0.440828 -1.27111 2.03545
36 32.065 3 S 5.04507 7.14053 10.2859 0.0935685 -0.656418 0.940695
37 32.065 3 S 0.216813 1.9553 0.805574 -0.303294 0.950608 -0.0598067
38 32.065 3 S 7.20086 2.39545 6.91182 0.649841 -0.0778097 1.30832
39 32.065 3 S 3.93021 2.77049 2.35846 -1.23627 0.455549 0.873804
40 32.065 3 S 3.22093 3.02735 8.25992 0.150835 0.15148 1.43525
41 32.065 3 S 0.766522 8.75175 2.07154 -0.115602 -0.440542 0.238137
42 32.065 3 S 1.81872 9.60423 7.08821 -0.633693 -0.0879331 0.583231
43 32.065 3 S 5.41126 6.51352 1.51667 0.799293 -0.0218368 1.38902
44 32.065 3 S 5.23212 6.06464 7.43738 0.220138 -0.609617 -0.564737
45 32.065 3 S 6.42112 4.34896 4.6942 -0.0155154 -0.773837 -0.69169
46 32.065 3 S 6.77875 4.10475 11.189 0.155875 0.273486 0.0313696
47 32.065 3 S 3.06435 1.37978 5.21829 -0.352385 2.17126 -1.92229
48 32.065 3 S 2.5468 0.825768 10.6118 0.411896 0.916806 -0.91945
49 32.065 3 S 6.726 1.19581 4.05452 -0.434827 0.371512 1.07012
50 32.065 3 S 7.20048 0.956801 10.5397 -0.474107 1.00552 0.0464724
51 32.065 3 S 2.72096 4.67424 5.00308 -0.165128 -1.44232 -1.05743
52 32.065 3 S 2.81248 4.02646 11.3432 0.0506367 -1.10624 -1.69155
53 32.065 3 S 1.26847 5.61749 2.04458 0.210114 -0.125085 -0.526885
54 32.065 3 S 0.912631 6.91168 8.39143 0.146055 -0.636228 -0.0020218
55 32.065 3 S 4.71358 9.57207 1.31335 0.777128 -0.216889 -0.507049
56 32.065 3 S 6.02181 9.10237 8.08953 -0.493441 -0.673614 0.23934
ITEM: TIMESTEP
5000
ITEM: NUMBER OF ATOMS
56
ITEM: BOX BOUNDS pp pp pp
0.0000000000000000e+00 8.1500000000000004e+00
0.0000000000000000e+00 1.0070000000000000e+01
0.0000000000000000e+00 1.2318000000000000e+01
ITEM: ATOMS id mass type element x y z fx fy fz
1 6.941 1 Li 2.2249 8.29893 3.70328 -0.0732588 -0.19484 -0.0446105
2 6.941 1 Li 2.41248 8.75452 9.92934 -0.199535 -0.171402 -0.138104
3 6.941 1 Li 5.70403 8.1837 2.58858 0.0820025 -2.00614 0.214323
4 6.941 1 Li 6.30102 8.09525 12.1558 0.378992 -0.184699 -0.610711
5 6.941 1 Li 3.19973 0.73586 1.53184 -0.0046643 -0.241762 -0.0507958
6 6.941 1 Li 7.51104 5.4077 2.4524 0.32335 -0.236363 0.373731
7 6.941 1 Li 4.87642 5.37628 10.9827 1.13603 1.05222 -0.0362117
8 6.941 1 Li 7.7745 9.84498 6.12273 -0.63739 0.390699 -0.299258
9 6.941 1 Li 4.38593 9.8814 5.51055 0.641609 -0.211589 0.197645
10 6.941 1 Li 1.90414 4.34731 0.440158 -0.618127 0.100073 0.872183
11 6.941 1 Li 6.1239 4.09894 7.02188 -0.217581 0.0383681 -0.216118
12 6.941 1 Li 0.657094 0.383403 12.0832 -0.171396 0.080538 -0.0187731
13 6.941 1 Li 1.17323 5.8913 10.4531 -0.135207 0.105482 -0.20022
14 6.941 1 Li 2.11783 0.593371 7.1458 0.109726 0.265375 -0.279855
15 6.941 1 Li 5.808 2.01945 1.91457 0.384607 -0.361557 0.466025
16 6.941 1 Li 4.94799 0.285151 9.83223 0.0572397 -0.446037 -0.202757
17 6.941 1 Li 6.75299 2.76619 9.53913 0.276376 -0.062956 -0.169827
18 6.941 1 Li 0.776753 3.6701 7.72028 0.755752 1.00787 -0.064839
19 6.941 1 Li 1.51172 5.31336 5.14541 -0.259062 0.0689074 0.230375
20 6.941 1 Li 3.44328 4.91888 8.18387 -0.823166 -0.620751 0.0185442
21 6.941 1 Li 0.359143 1.34664 3.2591 -0.00339834 -0.231429 -0.129345
22 6.941 1 Li 4.43454 3.03155 0.00460596 -0.0264037 -0.403057 0.233477
23 6.941 1 Li 4.23483 4.89198 3.56449 0.306962 -0.31439 -0.572905
24 6.941 1 Li 6.07629 7.28257 5.76631 -0.101733 -0.0383201 -0.212193
25 10.811 2 B 1.13712 7.97325 0.903378 -0.359464 0.098396 -0.782507
26 10.811 2 B 0.773391 7.6098 6.71995 0.31564 -0.891435 1.07307
27 10.811 2 B 4.90127 7.40521 2.02727 0.797713 1.91274 1.78048
28 10.811 2 B 5.12101 7.60425 8.43878 0.472906 0.420561 -0.0643597
29 10.811 2 B 7.18276 2.64538 5.34339 -1.08042 -0.725723 1.73674
30 10.811 2 B 7.29234 3.13288 12.0832 0.172953 1.24306 0.279831
31 10.811 2 B 3.44084 2.27023 4.26263 -0.656985 2.52337 0.606494
32 10.811 2 B 2.71754 2.47173 10.1347 0.381025 -0.0445208 -0.667071
33 32.065 3 S 0.172964 7.67392 4.99337 0.303858 -0.0719742 0.33212
34 32.065 3 S 0.517905 8.07323 11.4704 0.120158 0.0958904 -0.297654
35 32.065 3 S 4.33641 7.0706 3.83081 0.0212295 0.889837 -0.208961
36 32.065 3 S 4.87157 7.76321 10.1888 -0.715951 0.0793272 0.750538
37 32.065 3 S 7.83275 3.18462 1.52306 0.696074 -0.139095 -0.174163
38 32.065 3 S 7.54532 2.1873 7.27362 -1.10041 -0.373554 -1.09867
39 32.065 3 S 3.66804 2.82051 2.47588 0.28638 -0.331676 -0.569812
40 32.065 3 S 2.57203 2.46452 8.36834 0.521863 0.488543 -0.373335
41 32.065 3 S 1.3782 9.43686 1.86113 -0.570275 1.67502 0.196007
42 32.065 3 S 0.758861 9.04099 7.85431 0.698594 -0.692957 0.503922
43 32.065 3 S 5.82124 6.1927 1.17694 -0.0732181 -0.736727 -0.22867
44 32.065 3 S 5.15661 6.08862 7.53644 0.156558 -0.842781 -0.121801
45 32.065 3 S 7.17803 4.38184 4.93083 0.489223 -0.475937 -0.505253
46 32.065 3 S 7.4331 4.56261 10.9189 -0.0474535 -0.359995 0.194241
47 32.065 3 S 2.53484 0.821672 4.71664 -0.318417 -0.437719 -0.0344948
48 32.065 3 S 2.81859 0.86408 10.8718 0.0695838 -0.289498 1.37918
49 32.065 3 S 6.31766 1.1288 4.69228 0.822555 0.782811 -1.37913
50 32.065 3 S 6.29959 1.74508 11.6174 -0.454451 -1.32597 -0.196205
51 32.065 3 S 3.4464 3.87922 5.36784 0.125923 -1.71735 -0.238295
52 32.065 3 S 3.13993 4.1153 10.8718 -0.950925 0.19737 -0.0821001
53 32.065 3 S 1.3879 6.4675 1.72493 0.513664 -1.82488 0.438103
54 32.065 3 S 1.30375 5.97007 7.58436 -0.206882 0.961639 -0.452306
55 32.065 3 S 4.66546 8.93929 1.11005 -1.30586 1.2727 -0.807833
56 32.065 3 S 5.55851 9.04003 7.47185 -0.306904 1.25628 -0.347884
ITEM: TIMESTEP
6000
ITEM: NUMBER OF ATOMS
56
ITEM: BOX BOUNDS pp pp pp
0.0000000000000000e+00 8.1500000000000004e+00
0.0000000000000000e+00 1.0070000000000000e+01
0.0000000000000000e+00 1.2318000000000000e+01
ITEM: ATOMS id mass type element x y z fx fy fz
1 6.941 1 Li 2.47021 9.13182 0.637497 0.342648 0.653222 0.041796
2 6.941 1 Li 2.2106 8.24082 9.9038 0.446995 -0.0507782 0.276763
3 6.941 1 Li 6.22215 8.38855 2.35049 0.787911 -0.0246344 0.380752
4 6.941 1 Li 6.3885 6.19709 11.5354 -0.153703 0.377317 -0.0711591
5 6.941 1 Li 0.73856 2.01372 3.25284 -0.330139 0.0145082 -0.0987751
6 6.941 1 Li 3.00316 5.34469 2.78045 0.0160286 0.162887 -0.300559
7 6.941 1 Li 2.22463 5.68338 11.4332 0.0577425 -0.0485066 -0.223529
8 6.941 1 Li 1.51576 9.62477 4.94737 -0.838862 -0.810083 -0.194106
9 6.941 1 Li 4.84005 0.382374 5.19372 0.811283 1.07459 0.182251
10 6.941 1 Li 6.78268 4.65107 1.5866 -0.278372 0.770486 0.451299
11 6.941 1 Li 4.29979 3.39826 6.53166 0.449651 -0.155405 0.155103
12 6.941 1 Li 7.70832 9.05549 9.4974 0.275598 0.00433852 0.580176
13 6.941 1 Li 7.96608 4.90188 8.48051 0.164749 0.462345 0.0575068
14 6.941 1 Li 2.74344 1.07713 7.21105 -0.327382 -0.401988 0.490179
15 6.941 1 Li 6.30363 6.06322 4.83509 -0.194685 -0.0912366 0.0119968
16 6.941 1 Li 4.76377 9.36852 11.1712 0.334415 0.0387289 -0.86342
17 6.941 1 Li 6.14562 3.11214 9.56281 -0.679169 0.774513 -1.15671
18 6.941 1 Li 1.58531 4.61717 5.69731 0.161247 0.573719 0.166124
19 6.941 1 Li 3.83096 7.9308 6.60767 0.50305 -0.295548 -0.12892
20 6.941 1 Li 3.86772 4.66785 8.69478 -0.160242 0.887147 0.496758
21 6.941 1 Li 7.51029 9.85172 0.285241 -0.22128 0.576689 -0.405368
22 6.941 1 Li 1.11421 3.69437 0.808735 -0.177709 0.0306056 -0.508557
23 6.941 1 Li 4.74096 2.25116 1.13183 -0.14859 -0.0952833 0.0202457
24 6.941 1 Li 7.85925 0.796067 7.73629 -0.359892 0.0185635 -0.47804
25 10.811 2 B 0.776804 7.57817 0.804077 -1.21369 1.11299 0.26537
26 10.811 2 B 1.63093 7.25247 6.92048 -0.381336 0.243348 0.792945
27 10.811 2 B 5.06607 8.26465 2.37674 -0.530807 -0.0961549 0.791817
28 10.811 2 B 5.5437 7.40072 8.64095 -1.50521 -1.20825 0.675915
29 10.811 2 B 7.64154 2.69934 5.53722 -0.571975 1.04857 0.887028
30 10.811 2 B 6.48981 2.80587 11.8604 0.732634 -1.6977 -0.245322
31 10.811 2 B 3.14213 2.80234 4.00266 0.717968 2.00192 -1.38393
32 10.811 2 B 2.68598 2.2515 10.2736 -0.910874 -0.0668108 -0.237769
33 32.065 3 S 1.76881 7.19198 5.15836 -0.0485324 0.203148 0.0417542
34 32.065 3 S 0.185691 7.81107 11.3919 0.170457 -0.0834995 -0.330473
35 32.065 3 S 4.97959 8.64225 4.20364 0.183242 -1.03457 -0.629099
36 32.065 3 S 4.4859 7.12764 10.2776 0.616267 0.221766 -0.511097
37 32.065 3 S 7.21383 2.54888 1.19201 0.119959 -0.981303 0.29312
38 32.065 3 S 7.37911 3.07167 7.36435 -0.0440744 -0.483644 -0.338847
39 32.065 3 S 2.65501 2.83423 2.13144 0.844777 -0.367281 1.53607
40 32.065 3 S 3.74808 2.43102 8.68967 -0.200742 0.175831 0.733472
41 32.065 3 S 0.581207 8.9731 2.00384 0.243516 -0.206231 0.0988665
42 32.065 3 S 1.40944 8.88279 7.9004 0.170819 0.667209 -1.11441
43 32.065 3 S 5.12307 6.49205 2.12796 0.223695 -0.591959 -0.614809
44 32.065 3 S 5.5488 5.92485 7.53625 0.472881 0.135912 -0.037164
45 32.065 3 S 7.83937 4.07984 4.40404 0.218074 0.729278 -0.46022
46 32.065 3 S 5.29189 4.07272 11.6631 -0.548795 0.597159 -0.145483
47 32.065 3 S 2.76484 1.35348 4.96192 0.46884 0.485895 0.309952
48 32.065 3 S 2.82648 0.589871 11.0902 -0.320956 0.621688 -0.296531
49 32.065 3 S 7.50207 1.09032 4.93263 -0.245009 -1.89982 0.0188445
50 32.065 3 S 6.77579 1.44213 10.5713 0.208894 -1.13927 1.29629
51 32.065 3 S 3.95067 4.44223 4.57888 -0.7254 -1.7515 0.163575
52 32.065 3 S 1.30695 3.49499 10.7393 1.67114 -0.401091 -0.603648
53 32.065 3 S 1.31677 6.02827 1.28726 0.371236 -1.62085 0.499719
54 32.065 3 S 1.91542 5.85294 8.02776 -0.309066 -0.268611 -0.305094
55 32.065 3 S 4.88694 9.5026 1.05099 0.058204 0.332466 0.681304
56 32.065 3 S 6.02547 8.97842 8.09841 -0.417431 0.875159 -0.713952
ITEM: TIMESTEP
7000
ITEM: NUMBER OF ATOMS
56
ITEM: BOX BOUNDS pp pp pp
0.0000000000000000e+00 8.1500000000000004e+00
0.0000000000000000e+00 1.0070000000000000e+01
0.0000000000000000e+00 1.2318000000000000e+01
ITEM: ATOMS id mass type element x y z fx fy fz
1 6.941 1 Li 2.39494 0.951598 2.32098 -0.0814095 -0.231507 0.027375
2 6.941 1 Li 1.13444 9.75771 11.8645 0.0940322 0.131635 0.170578
3 6.941 1 Li 6.22917 8.06117 2.63746 1.25616 -0.507583 0.495233
4 6.941 1 Li 6.47853 4.56125 10.063 -0.887538 0.510801 -0.233337
5 6.941 1 Li 0.400937 2.53113 3.28586 0.0388855 0.686633 -0.573225
6 6.941 1 Li 4.30144 5.01712 3.32199 0.388718 -0.2711 -0.0112038
7 6.941 1 Li 4.05157 7.14792 0.268554 -0.752169 -0.401976 -0.0569781
8 6.941 1 Li 5.41274 1.58385 2.46384 0.31519 -0.104021 0.449006
9 6.941 1 Li 2.44084 7.31958 4.04952 0.375008 0.2495 -0.154263
10 6.941 1 Li 1.21412 4.55501 -0.0137603 0.33794 0.388807 0.679086
11 6.941 1 Li 4.42416 3.03314 7.46932 0.0644007 0.0255509 -0.121176
12 6.941 1 Li 7.19773 0.783727 7.67993 -0.143186 -0.808306 0.0683629
13 6.941 1 Li 3.18522 5.85303 9.47721 -0.0141993 0.243038 0.0166261
14 6.941 1 Li 0.258475 9.16428 4.81804 0.501928 2.0641 -0.203127
15 6.941 1 Li 6.27649 7.08381 6.52958 0.101568 0.0194171 0.202207
16 6.941 1 Li 4.87517 0.463491 10.1481 0.110643 -0.199681 -0.000213318
17 6.941 1 Li 0.335648 4.56798 6.21695 -0.058156 0.212406 -0.288294
18 6.941 1 Li 8.155 5.52772 3.19859 -0.204051 0.114487 -0.0828754
19 6.941 1 Li 5.35738 9.28181 5.1596 -0.297411 0.517556 -0.374839
20 6.941 1 Li 1.11248 2.78866 8.37078 0.0178054 0.121773 0.153725
21 6.941 1 Li 6.15157 8.09938 11.9079 0.553153 0.136305 0.0958816
22 6.941 1 Li 0.913324 8.18273 9.49279 0.0645658 -0.136908 -0.523295
23 6.941 1 Li 5.05314 3.04628 0.343795 0.490473 -0.0750102 0.534455
24 6.941 1 Li 2.96329 0.417262 7.59097 -0.323758 -0.285064 -0.682053
25 10.811 2 B 1.14674 7.50349 1.01153 -0.779753 0.70233 0.714953
26 10.811 2 B 0.99982 7.6433 6.68633 -0.366955 -1.96185 0.032726
27 10.811 2 B 5.19059 7.4965 2.63134 0.619527 0.0174788 -0.963844
28 10.811 2 B 5.07528 8.13464 8.86306 -1.6185 1.43901 -0.650859