LBS.lmp (written by ASE) 

56 	 atoms 
3  atom types
0.0      8.1500000000000004  xlo xhi
0.0                   10.07  ylo yhi
0.0                  12.318  zlo zhi


Atoms 

     1   1      4.0260999999999996      7.5525000000000002                5.832573
     2   1      4.0260999999999996      7.5525000000000002      11.991573000000001
     3   1      8.1011000000000006      7.5525000000000002      3.4059270000000001
     4   1      8.1011000000000006      7.5525000000000002      9.5649270000000008
     5   1      4.1238999999999999      2.5175000000000001     0.32642700000000002
     6   1      4.1238999999999999      2.5175000000000001      6.4854269999999996
     7   1       0.048899999999999      2.5175000000000001      2.7530730000000001
     8   1    0.048899999999999999      2.5175000000000001      8.9120729999999995
     9   1                 1.40995      9.9995100000000008      5.5307820000000003
    10   1                 1.40995      9.9995100000000008      11.689781999999999
    11   1      5.4849500000000004      5.1054899999999996      3.7077179999999998
    12   1      5.4849500000000004      5.1054899999999996      9.8667180000000005
    13   1      6.7400500000000001      4.9645099999999998     0.62821800000000005
    14   1      6.7400500000000001      4.9645099999999998      6.7872180000000002
    15   1      2.6650499999999999    0.070489999999999997                2.451282
    16   1      2.6650499999999999    0.070490000000000996      8.6102819999999998
    17   1      6.7400500000000001    0.070489999999999997     0.62821800000000005
    18   1      6.7400500000000001    0.070489999999999997      6.7872180000000002
    19   1      2.6650499999999999      4.9645099999999998                2.451282
    20   1      2.6650499999999999      4.9645099999999998      8.6102819999999998
    21   1                 1.40995      5.1054899999999996      5.5307820000000003
    22   1                 1.40995      5.1054899999999996      11.689781999999999
    23   1      5.4849500000000004      9.9995100000000008      3.7077179999999998
    24   1      5.4849500000000004      9.9995100000000008      9.8667180000000005
    25   2     0.96821999999999997      7.5525000000000002     0.72060299999999999
    26   2     0.96821999999999997      7.5525000000000002      6.8796030000000004
    27   2      5.0432199999999998      7.5525000000000002      2.3588969999999998
    28   2      5.0432199999999998      7.5525000000000002      8.5178969999999996
    29   2      7.1817799999999998      2.5175000000000001      5.4383970000000001
    30   2      7.1817799999999998      2.5175000000000001      11.597397000000001
    31   2      3.1067800000000001      2.5175000000000001                3.800103
    32   2      3.1067800000000001      2.5175000000000001      9.9591030000000007
    33   3                1.635705      7.5525000000000002      5.1877256999999997
    34   3                1.635705      7.5525000000000002              11.3467257
    35   3      5.7107049999999999      7.5525000000000002      4.0507742999999996
    36   3      5.7107049999999999      7.5525000000000002      10.209774299999999
    37   3      6.5142949999999997      2.5175000000000001     0.97127430000000003
    38   3      6.5142949999999997      2.5175000000000001               7.1302743
    39   3                2.439295      2.5175000000000001      2.1082257000000002
    40   3                2.439295      2.5175000000000001      8.2672256999999991
    41   3     0.62592000000000003      9.1294620000000002               1.6038036
    42   3     0.62592000000000003      9.1294620000000002      7.7628035999999998
    43   3                 4.70092      5.9755380000000002      1.4756963999999999
    44   3                 4.70092      5.9755380000000002      7.6346964000000002
    45   3      7.5240799999999997                4.094462      4.5551963999999998
    46   3      7.5240799999999997                4.094462      10.714196400000001
    47   3      3.4490799999999999     0.94053799999999999      4.6833036000000003
    48   3      3.4490799999999999     0.94053799999999999      10.842303599999999
    49   3      7.5240799999999997     0.94053799999999999      4.5551963999999998
    50   3      7.5240799999999997     0.94053799999999999      10.714196400000001
    51   3      3.4490799999999999                4.094462      4.6833036000000003
    52   3      3.4490799999999999                4.094462      10.842303599999999
    53   3     0.62592000000000003      5.9755380000000002               1.6038036
    54   3     0.62592000000000003      5.9755380000000002      7.7628035999999998
    55   3                 4.70092      9.1294620000000002      1.4756963999999999
    56   3                 4.70092      9.1294620000000002      7.6346964000000002
