LAMMPS (29 Sep 2021 - Update 2)
  using 4 OpenMP thread(s) per MPI task
units metal
atom_style atomic # use charge if some atoms are charged
dimension 3

# set newton on for pair_allegro (off for pair_nequip)
newton off
boundary p p p
read_data LBS.lmp
Reading data file ...
  orthogonal box = (0.0000000 0.0000000 0.0000000) to (8.1500000 10.070000 12.318000)
  1 by 1 by 1 MPI processor grid
  reading atoms ...
  56 atoms
  read_data CPU = 0.009 seconds

# for running a larger system, simply replicate the system in space
# replicate 2 2 1

# nequip pair style
pair_style	nequip
pair_coeff	* * ../../training/iteration_1-deployed.pth Li B S
mass 1 6.941
mass 2 10.811
mass 3 32.065

# initialise velocities
velocity all create 1000 12345 loop all

neighbor 1.0 bin
neigh_modify delay 5 every 1

timestep 0.001
thermo 100

group Lithium type 1
24 atoms in group Lithium
group Boron type 2
8 atoms in group Boron
group Sulfur type 3
24 atoms in group Sulfur

# nose-hoover thermostat
fix 1 all nvt temp 1000 1000 0.05
compute 1 Lithium msd com yes
compute 2 Boron msd com yes
compute 3 Sulfur msd com yes

# outputting important quantities
thermo_style custom step temp pe etotal press c_1[*] c_2[*] c_3[*]
# writing positions and velocities in files
dump 1 all custom 1000 dump_*.lmc id mass type element x y z fx fy fz
dump_modify 1 element Li B S sort id
run 1000000
Neighbor list info ...
  update every 1 steps, delay 5 steps, check yes
  max neighbors/atom: 2000, page size: 100000
  master list distance cutoff = 5
  ghost atom cutoff = 5
  binsize = 2.5, bins = 4 5 5
  1 neighbor lists, perpetual/occasional/extra = 1 0 0
  (1) pair nequip, perpetual
      attributes: full, newton off
      pair build: full/bin/atomonly
      stencil: full/bin/3d
      bin: standard
Per MPI rank memory allocation (min/avg/max) = 8.092 | 8.092 | 8.092 Mbytes
Step Temp PotEng TotEng Press c_1[1] c_1[2] c_1[3] c_1[4] c_2[1] c_2[2] c_2[3] c_2[4] c_3[1] c_3[2] c_3[3] c_3[4] 
       0         1000   -13282.343   -13275.233    7511.3699            0 3.1554436e-30 3.1554436e-30 6.3108872e-30            0            0            0            0 7.8886091e-31            0 3.1554436e-30 3.9443045e-30 
     100    498.17723   -13276.158   -13272.617    3741.9934   0.13177888   0.10808651  0.097432872   0.33729827  0.043167841  0.037632903  0.028920065   0.10972081  0.091264087  0.055757144  0.041125681   0.18814691 
     200    1044.4585    -13275.37   -13267.945    7845.3143   0.22112472  0.042438829  0.099839134   0.36340269  0.048013268  0.010375396  0.033874782  0.092263447   0.12219938  0.025368274  0.065535645    0.2131033 
     300     1020.347   -13273.431   -13266.177    7664.2038   0.14980057   0.32723772   0.18964301   0.66668131  0.047819454  0.059637269  0.057032539   0.16448926   0.10372465  0.073757982  0.070387617   0.24787025 
     400    954.29551   -13273.428   -13266.643    7168.0665   0.19131772   0.56406008   0.39771407    1.1530919  0.031992299  0.033876165  0.024103744  0.089972209  0.095538137  0.058035286  0.050251026   0.20382445 
     500    1138.4228   -13273.405   -13265.312    8551.1148    0.3490566   0.49808962   0.70083581     1.547982  0.095123538   0.11074291  0.045412661   0.25127911   0.19124306   0.10598784  0.097668102     0.394899 
     600    1184.9549    -13272.11   -13263.686    8900.6344   0.48462516   0.84874978    1.1137902    2.4471652   0.11608855   0.10570047  0.048416041   0.27020506   0.19482467   0.18690064  0.091864194    0.4735895 
     700    962.01262   -13271.843   -13265.004    7226.0326   0.48511654   0.61056565     1.183967    2.2796492  0.031331902   0.09576387  0.032583703   0.15967947   0.32618021   0.20260496   0.12906839   0.65785356 
     800     952.0723   -13271.646   -13264.878    7151.3672   0.51075026   0.59152343    1.4189047    2.5211784  0.042919549  0.047259949   0.10304895   0.19322845   0.15543108   0.18821368   0.17917077   0.52281553 
     900     1070.583    -13271.18   -13263.569    8041.5449     1.280766    1.0715322   0.90429851    3.2565967  0.047238837  0.064831277  0.094734606   0.20680472  0.056426995   0.12629608   0.20353024   0.38625331 
    1000    1052.6996   -13272.309   -13264.825    7907.2159    1.2292451    1.9039359   0.92281176    4.0559928   0.08578993  0.048571131  0.061985997   0.19634706   0.18766116  0.093406851   0.11804126   0.39910927 
    1100    950.45581    -13273.96   -13267.203    7139.2251    1.4499095     2.001092    1.0988156    4.5498171  0.080445698   0.01723887   0.11667171   0.21435627   0.12416704  0.067385043   0.12890525   0.32045733 
    1200    994.70755   -13274.562    -13267.49    7471.6163    1.8433609    1.7115312    1.3017675    4.8566596  0.041440134  0.079731013  0.049635692   0.17080684   0.17285179   0.10783451   0.10936121   0.39004751 
    1300    1119.2526    -13273.95   -13265.993    8407.1201    2.1548003    1.4656907    1.1637231    4.7842141   0.13507312  0.087273642  0.046007838    0.2683546    0.2063198   0.10417891  0.058907798   0.36940651 
    1400    986.98123   -13274.053   -13267.036     7413.581    2.2480911    2.1054751   0.93473238    5.2882986  0.057032392  0.070720533 0.0087490121   0.13650194   0.19445082   0.10448408  0.038600646   0.33753555 
    1500    945.95821   -13273.653   -13266.928     7105.442    2.1394637    2.6676341   0.93039982    5.7374977  0.054873262   0.12969913  0.095219634   0.27979202    0.1264211    0.1471399  0.070941528   0.34450253 
    1600     1045.787   -13273.329   -13265.894    7855.2929    2.1282625    2.1884202   0.96422405    5.2809067  0.064712979   0.24849946  0.035019037   0.34823148   0.13955995   0.24279381  0.074921257   0.45727501 
    1700    941.54999   -13274.097   -13267.403    7072.3303    2.0661024    2.3730448    1.3809661    5.8201133   0.08592153   0.14896955   0.04312335   0.27801443   0.29043487   0.21707324   0.11835247   0.62586058 
    1800    912.97819   -13272.452   -13265.962    6857.7168    1.8945442    2.5042087    1.4135101     5.812263  0.085861995  0.066505326  0.080012359   0.23237968   0.33156674     0.149785   0.17039239   0.65174412 
    1900    1139.0376   -13273.036   -13264.938    8555.7329    2.6102698    2.8879052    1.4601919    6.9583668  0.046699144  0.084784312  0.032639909   0.16412337   0.32547059   0.12573839  0.088010294   0.53921928 
    2000     767.2142    -13272.15   -13266.696    5762.8297    2.5975414     2.862426    1.6630555    7.1230229  0.061352604   0.07669678  0.022792609   0.16084199   0.47360848   0.17244088   0.12924265     0.775292 
    2100    1031.3382   -13271.317   -13263.985    7746.7628    2.9326927    3.5694212    2.4241766    8.9262906   0.14903777   0.08498704  0.045159545   0.27918436   0.47480359   0.15960582   0.12707755   0.76148696 
    2200     960.2479   -13271.594   -13264.767    7212.7771    3.5260518    3.1943117    2.5808548    9.3012183    0.2227416    0.1653035   0.22293043   0.61097554   0.40807613   0.19253445   0.16076577   0.76137636 
    2300    1075.7354   -13271.754   -13264.106    8080.2462    2.8790889    3.8465606    2.4512275     9.176877   0.12843007   0.16356145   0.19647771   0.48846924   0.36685893   0.18430839   0.17703298    0.7282003 
    2400    940.00966   -13271.503    -13264.82    7060.7603    3.2080065    3.1859099    2.5574673    8.9513837    0.1556788  0.065370065  0.098756501   0.31980537    0.3714278   0.17495892   0.15978595   0.70617267 
    2500    985.06796   -13272.504   -13265.501    7399.2098    3.2675483    3.5813663    3.3809507    10.229865  0.086062831   0.11007766   0.14802032    0.3441608   0.29768809   0.19098598   0.20099722   0.68967129 
    2600    915.28155   -13271.716   -13265.209    6875.0183    4.1741755    3.8103639    3.4046525    11.389192   0.13366384  0.038015806   0.33382325    0.5055029   0.39352809   0.17815816   0.29752085    0.8692071 
    2700    1213.1711   -13270.622   -13261.997    9112.5769    4.4331552    3.9038096    3.6096062    11.946571  0.068839072  0.053807499   0.39567715   0.51832373   0.54170776   0.19553696   0.40135557    1.1386003 
    2800     942.5782   -13270.374   -13263.673    7080.0535    5.6059854    4.0267895     3.605883    13.238658  0.091372492  0.019242668   0.25518075    0.3657959    0.6096055   0.18207299   0.36661005    1.1582885 
    2900    916.37608   -13271.962   -13265.447    6883.2397    5.1840377    4.5364166    3.9208831    13.641337   0.11152096  0.045371459   0.21391659   0.37080901   0.61394542   0.26334635   0.41470279    1.2919946 
    3000    970.14494    -13272.62   -13265.723    7287.1175    5.1977271    5.0788931    4.4491888    14.725809  0.074705394  0.054606173   0.14813461   0.27744617   0.75070815   0.31471234   0.38626218    1.4516827 
    3100    1077.4676   -13271.174   -13263.514     8093.258    4.6376549    5.3724893    5.1095843    15.119728   0.11749624  0.048111306   0.12004033   0.28564788   0.90110854   0.14162261   0.24627731    1.2890085 
    3200    1092.4191   -13273.514   -13265.747    8205.5641    5.6856036    4.9260743    4.8368421     15.44852   0.15854171  0.014615763  0.018272521   0.19142999   0.99213405   0.10924334   0.13078664     1.232164 
    3300    1004.2915   -13273.188   -13266.048    7543.6051    6.6508677    6.8021778     6.161311    19.614356  0.090231579  0.017195085  0.015063643   0.12249031    1.1241278   0.15902357   0.17779998    1.4609514 
    3400     1034.712    -13274.06   -13266.703    7772.1049    6.6715479    5.9845835    5.8915906    18.547722  0.081258552  0.044323011  0.028668151   0.15424972   0.98509194   0.19727112   0.15203511    1.3343982 
    3500    1236.8093   -13273.265   -13264.472    9290.1318     6.865012    5.9022672    6.0929064    18.860186   0.12635628  0.032981867  0.069322704   0.22866085   0.80065606   0.13315987   0.17675534    1.1105713 
    3600    905.76686    -13273.03   -13266.591    6803.5499    7.0228652    5.8587548    6.2042945    19.085914  0.098008669  0.077098155  0.068816894   0.24392372   0.97339356   0.15341151   0.11993749    1.2467426 
    3700    1253.3627   -13274.164   -13265.254    9414.4711    8.4061876    5.7220568    5.8669183    19.995163   0.10612177  0.024465047  0.029385943   0.15997276   0.95824498   0.10349846    0.1069231    1.1686665 
    3800    942.97453   -13272.909   -13266.205    7083.0305    8.7839799    6.2443649    5.2267688    20.255114  0.087437763  0.071760993  0.040304887   0.19950364   0.97294993   0.10064816  0.086061548    1.1596596 
    3900     992.1331   -13272.223   -13265.169    7452.2787    7.7998833    6.4957839     5.345686    19.641353  0.035850567  0.087868131  0.039675684   0.16339438    0.8248044   0.11662129  0.058331885   0.99975757 
    4000    1034.3764   -13274.086   -13266.732    7769.5837    7.1511129    6.9627139    4.9475662    19.061393  0.073785157   0.10815014  0.023446893   0.20538219   0.84974566   0.15327478   0.11983321    1.1228537 
    4100    943.42279   -13273.896   -13267.188    7086.3975     7.648638    6.8435563     4.336558    18.828752  0.064392183  0.078269643  0.051223497   0.19388532   0.73251312   0.12549402   0.10273559   0.96074273 
    4200    1220.1774   -13271.962   -13263.287    9165.2038    8.6000787    6.5738148     4.073428    19.247322  0.035383626  0.034335901  0.044487883   0.11420741    0.7442008  0.070645865  0.075798872   0.89064553 
    4300    1082.0833   -13272.911   -13265.218    8127.9278    8.7582747    6.7981116    4.4066685    19.963055  0.064624406   0.03766113   0.14629324   0.24857878    1.0399129  0.094373884   0.19997947    1.3342663 
    4400     916.4835   -13273.067   -13266.552    6884.0466    8.2032899    7.1474932    4.6271773     19.97796  0.043626945  0.074469012    0.1261982   0.24429415   0.86001886   0.12819747    0.1873938    1.1756101 
    4500    1132.2176   -13273.253   -13265.204    8504.5051    8.6018064    7.8772218    4.7389913    21.218019  0.073856358  0.045867788   0.15496693   0.27469107    0.6719227  0.070675941   0.16110098   0.90369962 
    4600    1103.7419   -13272.359   -13264.513    8290.6134    8.4693571    9.0058739    4.3546161    21.829847   0.11936492  0.032646587   0.10175164   0.25376315   0.71980955  0.099481762   0.15188275   0.97117406 
    4700    1049.9149   -13273.966   -13266.502     7886.299     9.842503     8.776384    4.3249204    22.943807  0.092274287  0.040002105  0.031748121   0.16402451    0.9473406  0.093486605  0.091673008    1.1325002 
    4800    1172.8396   -13272.882   -13264.544    8809.6317    10.777936    8.4253531    5.0708865    24.274176   0.09720965  0.018818307   0.10175441   0.21778237   0.90764524  0.058033249   0.15824079    1.1239193 
    4900     953.7911   -13273.721    -13266.94    7164.2777    9.3760185    8.7543349    4.7236537    22.854007   0.07571836  0.031910256  0.090634409   0.19826302    0.7248153  0.086343445   0.14660229   0.95776103 
    5000    985.71135   -13274.367   -13267.359    7404.0425    9.6200706    8.2789562    4.9469737       22.846  0.045984323    0.0720355  0.076694058   0.19471388   0.77069303  0.096565332  0.089853239    0.9571116 
    5100    994.61244   -13272.167   -13265.096    7470.9019    10.396033    9.5824961    5.5250189    25.503548  0.075024746  0.037531762  0.085058321   0.19761483   0.80624768   0.11324978   0.16808609    1.0875835 
    5200    966.56521    -13272.69   -13265.819    7260.2288    9.4797116    9.1287478    5.3654344    23.973894  0.033005796  0.075840363   0.10457493   0.21342109   0.71021786   0.16697196   0.22910049    1.1062903 
    5300    1169.6945   -13271.273   -13262.958    8786.0079    10.348851    9.3466797    5.3897931    25.085323   0.15024406  0.067681299     0.108835   0.32676036    1.0359158   0.08070519   0.18096024    1.2975813 
    5400    931.21668   -13271.796   -13265.176    6994.7129    11.079131    9.4998866    5.7707575    26.349775   0.35402673  0.049674166   0.13902383   0.54272472    1.2725829   0.12564553   0.21203817    1.6102666 
    5500     1029.673   -13272.583   -13265.263    7734.2548    12.997908    9.6211532    6.2883655    28.907427   0.27742064   0.04579778   0.12375465   0.44697307    1.3292155   0.16108283   0.16881072     1.659109 
    5600    930.28515   -13273.356   -13266.743    6987.7158    13.286828    9.9895332    6.6466521    29.923013   0.25018001  0.092904686  0.084421981   0.42750667    1.2031199    0.1239233   0.11212083     1.439164 
    5700    978.37334    -13273.36   -13266.405     7348.924    14.842619    10.082716    8.2955592    33.220894   0.24409149  0.046827988  0.089196689   0.38011617   0.96525969  0.071684791   0.12465933    1.1616038 
    5800    855.73621   -13270.499   -13264.415    6427.7512    15.907334    10.851722    8.3070926    35.066148    0.2256255   0.10974997   0.15130246   0.48667793   0.85856689   0.15103364   0.25304375    1.2626443 
    5900    1090.1618   -13271.788   -13264.038    8188.6084    15.066294    9.1383863    8.6302174    32.834898   0.15418484  0.055146703   0.18400154   0.39333309   0.82260248   0.17435377   0.20989179     1.206848 
    6000     1153.055   -13273.579   -13265.382    8661.0229    15.440978    9.7437852    7.9108005    33.095564   0.19719738   0.10173605 0.0099157019   0.30884913   0.99700659   0.14141235  0.092073042     1.230492 
    6100    917.85883   -13273.222   -13266.696    6894.3772    15.750947    10.192601    8.0358247    33.979372     0.158993  0.073776397  0.058895456   0.29166485   0.86519727   0.11320703   0.14057593    1.1189802 
    6200    981.06218   -13273.343   -13266.368    7369.1209    15.729958    9.3388524    8.7624978    33.831308  0.052712014  0.078068615   0.12536898   0.25614961   0.54691467   0.17936567   0.25770242   0.98398276 
    6300    939.64001   -13270.874   -13264.194    7057.9837    16.185846    9.1651674    8.5215948    33.872609  0.070838717   0.11176807   0.18025992   0.36286671   0.41709176   0.36342275   0.37769668    1.1582112 
    6400    1124.8474   -13270.492   -13262.495    8449.1447     16.07854    9.8471168    8.1097701    34.035426  0.051503658   0.13385664   0.16522294   0.35058324   0.37502862   0.40261164   0.33687317    1.1145134 
    6500     1022.232   -13272.215   -13264.947    7678.3629    15.385256    10.319392    8.4072111    34.111858  0.096323807   0.14537159   0.22240257   0.46409797     0.297166   0.40800044   0.40307232    1.1082388 
    6600    863.81269   -13271.885   -13265.744    6488.4166    14.954931    10.592384    7.2352793    32.782594   0.17221867   0.10323991   0.18131878   0.45677737   0.43997261   0.37851017   0.36357276    1.1820555 
    6700    952.40347   -13270.751    -13263.98    7153.8547    15.239881    11.757677    7.4416842    34.439242   0.31383423   0.14052922   0.23327191   0.68763536    0.6871906   0.31396276   0.33704968     1.338203 
    6800    976.27302   -13272.711    -13265.77    7333.1477     14.48546    13.066283    7.8749023    35.426646   0.26956994   0.23322791   0.21280663   0.71560448   0.80275653   0.39534974   0.34140564    1.5395119 
    6900    1138.7112   -13272.053   -13263.957    8553.2813    13.603289     12.32619    8.1155407     34.04502   0.22309287   0.12017774   0.19786821   0.54113883   0.83795732   0.30996713   0.35074178    1.4986662 
    7000    1063.9621   -13273.585   -13266.021    7991.8132    13.420255     13.89068    8.7800819    36.091017  0.091386364  0.062389497   0.19817427   0.35195013   0.65690702   0.19316676   0.32243326     1.172507 
    7100    1097.8147   -13273.352   -13265.547    8246.0925    14.185198    15.291141     8.944567    38.420905  0.035939608  0.042422575  0.091863635   0.17022582   0.60292611   0.16373797   0.20491516   0.97157923 
    7200    1208.7416    -13271.79   -13263.197    9079.3055    16.973592    15.404608    9.0287918    41.406992   0.13762958  0.045928632   0.01899255   0.20255076   0.87572376   0.15797366   0.14379724    1.1774947 
    7300    886.45759   -13272.021   -13265.719    6658.5108    15.167733    15.746717    8.2268316    39.141283   0.18149242  0.065483411  0.023240306   0.27021614    1.1393691   0.12499454   0.15311247    1.4174761 
    7400    841.54311   -13272.985   -13267.003    6321.1415    14.891326    14.919557    8.4885823    38.299465   0.12906659  0.059279619  0.073932794     0.262279    1.0057203   0.11803015   0.12882327    1.2525737 
    7500    1142.9522    -13272.63   -13264.504     8585.137    14.643873    17.119068    8.8136633    40.576604   0.12962645  0.017105626   0.11177325   0.25850533   0.82381376  0.048303157    0.1490821     1.021199 
    7600    1075.5428   -13274.346   -13266.699    8078.7996    13.848214    17.210137      9.21107    40.269422   0.20681534  0.005926327  0.062593619   0.27533528    0.9800915  0.048317593   0.18788378    1.2162929 
    7700    1085.1702   -13274.008   -13266.293    8151.1146    13.397184    16.672201    9.7853767    39.854762   0.11300241  0.044105899  0.064991098    0.2220994    1.0531918  0.089739758     0.154359    1.2972906 
    7800    1045.8356    -13274.54   -13267.105    7855.6583    13.626662    17.123211    12.204364    42.954238   0.11152447  0.056657488  0.074731299   0.24291326   0.90586129   0.10907514   0.16667117    1.1816076 
    7900    849.98856   -13273.301   -13267.258    6384.5785    14.495705    18.083721    13.462781    46.042207   0.13593837  0.068324859   0.20288069   0.40714391   0.85366237   0.14223831   0.31607916    1.3119799 
    8000    1083.8873   -13272.967   -13265.261     8141.478    14.497231    17.452685    12.528493    44.478409  0.072479045  0.075061676   0.20757496   0.35511568   0.82639858   0.17208762   0.35479291    1.3532791 
    8100     930.1555   -13273.202   -13266.589     6986.742    14.900325    16.830111    13.065713    44.796149  0.059599606  0.070430097   0.11291237   0.24294207   0.89968892   0.24705526   0.40784261    1.5545868 
    8200    1247.6876   -13272.872   -13264.002    9371.8429    14.872867    17.997989    13.612392    46.483249   0.18469754   0.17994267   0.12204869   0.48668889   0.90576042    0.3879557   0.38173924    1.6754554 
    8300    1016.0906   -13272.996   -13265.772    7632.2326    15.233038    17.038135    12.812091    45.083265   0.15847073   0.24589842   0.10458698   0.50895613   0.99270288   0.41939588    0.4004437    1.8125425 
    8400    891.00174   -13273.012   -13266.677    6692.6436    14.953979     18.30121    11.932651    45.187841   0.27437115   0.15988754   0.17982266   0.61408135    1.0644597    0.3155511   0.39087041    1.7708812 
    8500    1095.8977   -13273.789   -13265.998    8231.6932    17.054224    18.592707    12.520071    48.167001   0.19610792   0.13173331   0.26980555   0.59764679    1.1351193    0.2495856   0.35372978    1.7384347 
    8600    1082.3662   -13272.685    -13264.99    8130.0527     17.38482    19.627207    14.147255    51.159282   0.25594363  0.058842553   0.36636622   0.68115241    1.2084347   0.15339086   0.44969984    1.8115254 
    8700    1047.2436   -13271.979   -13264.534    7866.2343    15.883055    19.966496    13.466758    49.316308   0.36159407   0.12392935   0.24041629    0.7259397    1.3611498   0.16565577   0.33854915    1.8653547 
    8800    926.52886    -13273.27   -13266.683     6959.501    16.648857    18.506285    12.533759    47.688901   0.55570141  0.075229503   0.24216797   0.87309888    1.2698084     0.129729   0.33452394    1.7340614 
    8900     1018.056   -13272.098    -13264.86    7646.9951     17.48981       19.167    12.901256    49.558066   0.72248419  0.034255731   0.23937857   0.99611849    1.2470687     0.160556   0.31917838    1.7268031 
    9000    984.85793   -13272.533   -13265.532    7397.6322    17.416181    19.677139     12.71766    49.810981    0.5301569  0.042739693   0.24642921   0.81932581    1.1495809   0.25485679   0.50501158    1.9094493 
    9100    890.59128   -13273.321    -13266.99    6689.5605     18.56847    20.315973    12.679799    51.564243   0.45952166  0.017913375    0.3722291   0.84966414    1.2940463   0.35681731   0.80388531    2.4547489 
    9200    1077.4021   -13272.109    -13264.45    8092.7654    18.910841    19.702228    13.468734    52.081803   0.57534064  0.049913316   0.52315352    1.1484075    1.4672233   0.45407972   0.93713183    2.8584349 
    9300     902.8381   -13271.957   -13265.538    6781.5509    16.707917    20.891933    13.913863    51.513714   0.77067727  0.063125576    0.5454803    1.3792831    1.5422625   0.50540566   0.82017744    2.8678456 
    9400    952.55465   -13272.328   -13265.556    7154.9903    16.986512    21.612653    14.296316     52.89548    0.5195778  0.072929328   0.26539288   0.85790001    1.2493831   0.42415029   0.56246396    2.2359973 
    9500    1045.2817   -13271.479   -13264.047    7851.4975    18.999646    20.735398     14.12028    53.855324   0.34865181    0.0697185   0.19603795   0.61440826    1.0463829   0.42091589   0.49258327     1.959882 
    9600    1072.5438   -13272.711   -13265.086    8056.2729    20.815315    21.006714    14.750709    56.572738   0.25991412  0.041535971   0.20627658   0.50772667    1.0658612   0.43893073   0.46975999     1.974552 
    9700    994.77469   -13273.639   -13266.567    7472.1206    21.782274    22.465384    14.035393     58.28305   0.27894149   0.11924334   0.26390248   0.66208731    1.2185359   0.54553165   0.59331512    2.3573827 
    9800    871.84959   -13270.835   -13264.637    6548.7848    21.543247    21.283024    14.572592    57.398863   0.27704462   0.22171966   0.21054377   0.70930805    1.2172791   0.81205019   0.77900708    2.8083364 
    9900    1136.5253   -13272.471   -13264.391    8536.8617     22.41397    20.728486    14.778745    57.921202   0.27270286   0.23447919   0.16273857   0.66992062    1.0968215   0.59047135   0.59012416     2.277417 
   10000     1055.455   -13272.758   -13265.254    7927.9129    22.278325    22.308617    14.102097    58.689039   0.24219039   0.18953269   0.19517931    0.6269024    1.0781219    0.7521515   0.53471646    2.3649898 
   10100    799.81165   -13271.885   -13266.199    6007.6811    22.187142     23.08476    14.946673    60.218576    0.3745485   0.20495031    0.2948284   0.87432721    1.4795601   0.96793407   0.79087231    3.2383665 
   10200    1187.6402   -13271.715   -13263.272    8920.8049    22.493968    23.287882    14.790645    60.572495   0.50729957   0.39370989   0.30459912    1.2056086    1.7170206    1.3340304    1.0613249     4.112376 
   10300    917.97436   -13271.926     -13265.4    6895.2449    23.171577    23.940141    15.971631    63.083348   0.52525379   0.30709046   0.21838564    1.0507299    1.4986515    1.1692344    1.1412507    3.8091366 
   10400    1049.2311   -13272.226   -13264.766    7881.1632    24.040582    23.248723    15.120939    62.410245   0.48626273   0.18298168   0.15150569    0.8207501    1.3512896    1.1069237    1.2260661    3.6842793 
   10500     858.1562   -13272.775   -13266.674    6445.9286    23.864438    23.545725    15.241283    62.651446   0.49936674   0.13073627   0.23384289    0.8639459    1.3818904    1.1250602     1.288015    3.7949656 
   10600    921.76948   -13272.921   -13266.368    6923.7515    22.524337    24.705864    15.648638    62.878839   0.38810045  0.022481403   0.23113554    0.6417174    1.4701743    1.1769424    1.4456405    4.0927572 
   10700    1168.2897   -13272.768   -13264.462    8775.4563    22.849431    24.816604    14.401755     62.06779   0.39253686  0.034291752   0.20237154   0.62920015    1.5017769    1.3115865    1.5978663    4.4112297 
   10800    923.23781   -13272.236   -13265.673    6934.7807    24.559582    27.427487     14.42858     66.41565   0.19557109   0.12350932   0.27085492   0.58993532     1.390934    1.3236414    1.5506997     4.265275 
   10900    1010.9367    -13271.65   -13264.463    7593.5193    27.243256    27.255165    15.850039    70.348459   0.22957879   0.10380955    0.2968925   0.63028083    1.3231885    1.2789224     1.585471    4.1875819 
   11000    957.13892   -13270.996   -13264.191    7189.4244    28.208329    26.625954    15.573969    70.408253   0.28234045   0.10924851   0.20216445   0.59375342    1.5185037    1.1847288    1.5772131    4.2804456 
   11100    973.23721   -13272.607   -13265.688    7310.3447    27.187735    28.017377    13.876839    69.081952   0.26203926   0.19289772   0.12830527   0.58324225    1.5568702    1.1964859    1.4587869    4.2121429 
   11200    1022.3267   -13272.346   -13265.078    7679.0742     28.00023     26.32966     15.11859     69.44848   0.29841046   0.15845409   0.14780139   0.60466594    1.4484359    1.2048307    1.4670159    4.1202825 
   11300    1241.6396   -13272.192   -13263.365    9326.4146    28.377346    25.972801    16.878209    71.228356   0.21037037   0.17331577   0.21629075   0.59997688    1.2979002    1.3647341    1.6499991    4.3126334 
   11400    760.98615   -13271.621   -13266.211    5716.0485    28.803733     25.24286    16.606722    70.653315   0.19007799  0.083458714   0.39621545   0.66975215    1.2112561    1.2287892    1.7500825    4.1901277 
   11500    1118.6734   -13272.186   -13264.233    8402.7696    29.507472    23.883136    17.766572     71.15718  0.098557313  0.061199899   0.38278645   0.54254366    1.1427601     1.168745    1.7706542    4.0821594 
   11600    989.85689   -13271.971   -13264.934    7435.1812    29.712806    24.287206    16.344709    70.344721   0.23260385  0.073835871   0.21720553   0.52364525     1.343681    1.3602842    1.7705104    4.4744757 
   11700    868.65688   -13271.278   -13265.103    6524.8031    26.875659    21.654443    18.695347    67.225448   0.37397111   0.14389357   0.34717033   0.86503501    1.2872493    1.5971526     2.151292    5.0356939 
   11800    1175.3276   -13271.744   -13263.388    8828.3206    29.826928    23.176548    17.140377    70.143854    0.4181232   0.14473272   0.44362963    1.0064855    1.2891573     1.690882    2.3874075    5.3674469 
   11900     1119.309   -13272.469   -13264.511    8407.5439    32.577971     24.92891    17.513452    75.020334   0.55886492   0.20947019   0.43095917    1.1992943    1.5694325     1.812253    2.6463542    6.0280396 
   12000    971.85223   -13271.834   -13264.925    7299.9416    30.910685      23.3732     17.05592    71.339805   0.80742895   0.19868795   0.56795243    1.5740693    1.9423623    1.7924403    2.5984759    6.3332786 
   12100    1012.5294   -13270.184   -13262.985     7605.483    30.608657    22.714647    17.478352    70.801657   0.70320113   0.21183725   0.82747655    1.7425149    2.2364448    1.8332903    2.6058197    6.6755548 
   12200    1110.6162   -13272.914   -13265.018    8342.2488    30.953332    22.834402    17.991726     71.77946   0.81006134   0.25144969    0.4959182    1.5574292     2.271727    1.7268928    2.4024472     6.401067 
   12300    899.04872   -13272.383   -13265.991    6753.0874    32.550817    22.783938    16.793783    72.128538   0.97088942   0.61931901   0.27628935    1.8664978    2.3108911    2.0433284    2.0211618    6.3753814 
   12400    965.63244   -13271.998   -13265.133    7253.2224    31.014111    22.727121     16.51706    70.258292    1.2193967   0.83335564   0.46208928    2.5148416    2.5803901     2.035423    1.9805258    6.5963389 
   12500    1222.9438    -13271.55   -13262.856    9185.9832    32.083488    24.945289    16.598345    73.627122   0.92456342   0.84636016   0.50218376    2.2731073     2.349251    2.0487978    2.2084719    6.6065207 
   12600    790.53441   -13270.799   -13265.179    5937.9964    31.112983     23.84527    17.221349    72.179601   0.96285507   0.72047585    0.4466446    2.1299755    2.3710818     2.051302    2.1281173    6.5505011 
   12700    929.61575   -13273.176   -13266.567    6982.6877    30.166595    24.468739    16.630425    71.265759    1.1335594   0.53731834   0.40322461    2.0741023    2.3673577    2.1029036     2.124032    6.5942933 
   12800    957.99887   -13272.361   -13265.551    7195.8838    32.237167    25.552112    17.808784    75.598063    1.3807094   0.31223071   0.35546755    2.0484077    2.4051133    1.8925778      2.19317    6.4908611 
   12900    944.93444   -13272.092   -13265.374    7097.7521    31.114929    26.969333     18.84073    76.924993    1.4051919   0.30674438   0.34679034    2.0587266    2.4002191    1.8387828    2.1788713    6.4178732 
   13000    1105.2403   -13271.562   -13263.704    8301.8687    31.535704    25.845186     19.43732    76.818209    1.0760875   0.32732801   0.25571496    1.6591304    2.1705938    1.9654365    2.0110129    6.1470432 
   13100    924.55759   -13272.563   -13265.991     6944.694    32.377849    24.357711    19.997247    76.732807    1.0132195   0.32927492   0.22013573    1.5626302    1.6372718     1.960363     1.988944    5.5865788 
   13200    1059.7526   -13271.862   -13264.328    7960.1935     32.87316    24.778419    19.678284    77.329863    1.3399669   0.21418941   0.26420702    1.8183633    1.7168906    1.7486502    1.8905151    5.3560559 
   13300    901.11763   -13271.767    -13265.36    6768.6278     34.32099    26.936217    18.199699    79.456907    1.2852631    0.1453481   0.36075129    1.7913625    1.8793935    1.7024428    1.8956087     5.477445 
   13400    864.69622   -13273.228    -13267.08    6495.0531    32.946205    26.414665    19.434287    78.795158    1.5266134   0.21869985   0.25873766    2.0040509    2.3030647    1.7067153    1.8344797    5.8442597 
   13500    1037.5679   -13272.749   -13265.373    7793.5559    31.027972     28.24618    20.822483    80.096635    1.5416225   0.31896498   0.14471278    2.0053002    2.2624569    1.7918833     1.513626    5.5679662 
   13600    953.13067   -13271.402   -13264.626     7159.317    32.370848    25.949265    21.634218     79.95433    1.3931325   0.24282546   0.24409676    1.8800548    1.9925507    1.6677372    1.6344472    5.2947351 
   13700    895.90485   -13272.049    -13265.68    6729.4727    32.614223    28.783197      21.5116     82.90902    1.0889546   0.19517338   0.17039853    1.4545266    1.4129495    1.5561112    1.4943662    4.4634269 
   13800    841.74076   -13272.056   -13266.071    6322.6262    34.316275    28.431305    20.106502    82.854082   0.79659412   0.21732399   0.11722824    1.1311464    1.1882126    1.6188656    1.4704846    4.2775627 
   13900    1106.5711   -13272.257    -13264.39     8311.865    32.462247    27.761481     21.99233    82.216058   0.63253257   0.24817865     0.157094    1.0378052    1.0514359    1.6552473     1.435895    4.1425782 
   14000    941.76228   -13271.505    -13264.81    7073.9248      33.8282    29.151598    21.513972    84.493771    0.7332831   0.26663773   0.24558667    1.2455075    1.0388574    1.6231905    1.5660906    4.2281384 
   14100    949.66592   -13273.747   -13266.996     7133.292    35.664507    27.182996    20.265942    83.113445   0.70119978   0.35345129   0.21206268    1.2667137    1.1426691    1.7780873    1.6499876    4.5707439 
   14200    1255.2885   -13273.946   -13265.022    9428.9365    38.285552    27.091394    21.014197    86.391142   0.78591211   0.36197558   0.20396205    1.3518497    1.2372236    1.6787884    1.7668017    4.6828137 
   14300    937.92496   -13272.439   -13265.771    7045.1013    38.250411    28.112117    21.125952     87.48848   0.92637098   0.14388926   0.13632886    1.2065891    1.1549788    1.4514938    1.4763181    4.0827907 
   14400    1073.3341   -13272.766   -13265.135    8062.2091    37.576943    27.053641    21.191277     85.82186    1.1578974   0.02164015   0.15985941    1.3393969    1.4670127    1.4824579    1.5766095    4.5260802 
   14500    1044.2158    -13271.26   -13263.836    7843.4911    36.703093    27.176224    18.989587    82.868904    1.0813067  0.032439205   0.38645951    1.5002054    1.6799909    1.5538671     1.806206     5.040064 
   14600    913.05619   -13271.962   -13265.471    6858.3028    38.697035    30.156996    19.127517    87.981547   0.93665008   0.11707235   0.44155011    1.4952725    1.5879299    1.4855812     1.725757     4.799268 
   14700    1078.5715    -13272.74   -13265.072    8101.5494    39.534037    29.933766    18.860893    88.328696    1.3588049   0.18851913   0.44783644    1.9951605    1.8270735    1.6185514    1.6676041     5.113229 
   14800    1057.1683   -13270.187   -13262.671    7940.7823    39.004828    29.376433    18.717293    87.098554    1.0986613   0.14368551   0.66363358    1.9059804    1.8124968    1.4091957    1.7755639    4.9972564 
   14900    1028.9107   -13272.317   -13265.003    7728.5291    38.435736    30.132406    17.727661    86.295802   0.65878724  0.090607873   0.79719406    1.5465892    1.4994491     1.450519    1.7358622    4.6858304 
   15000    976.90412   -13273.423   -13266.478    7337.8882    37.838536    31.787688    15.922028    85.548252   0.48230611  0.059313795   0.67255735    1.2141773    1.2288655    1.2251351    1.5832728    4.0372734 
   15100    1077.8336   -13271.438   -13263.775    8096.0065    39.080703    33.906989    17.159106    90.146797   0.53943288  0.068518431   0.57664279    1.1845941     1.322959    1.2700648     1.572868    4.1658918 
   15200    931.24843   -13272.448   -13265.828    6994.9514    36.588212    34.034802    18.004665    88.627679   0.64288209  0.089566607   0.37357261    1.1060213     1.515054    1.4734416    1.5742024     4.562698 
   15300    1093.7594   -13271.881   -13264.105    8215.6316    37.741865    32.660009     17.26307    87.664943   0.95417096   0.15677481   0.56269548    1.6736412    1.8431428    1.4961294    1.5389161    4.8781882 
   15400    960.72085   -13272.242   -13265.412    7216.3296    41.893247    33.792688    16.368812    92.054747    1.3331714   0.15339203   0.57724113    2.0638046    2.0698138    1.5026994    1.6975246    5.2700378 
   15500    830.41312    -13272.16   -13266.256    6237.5401    41.596393    32.709686    17.786947    92.093026    1.2158484   0.12286595   0.56559662     1.904311     1.940251     1.549003    1.8666838    5.3559377 
   15600     938.8522   -13270.827   -13264.153    7052.0661    42.093286    31.668627    19.331421    93.093334   0.86401327  0.069720667    0.4727517    1.4064856    1.6557209    1.4457942    1.7758414    4.8773565 
   15700    1032.7111    -13271.56   -13264.218    7757.0749    41.336342    33.306758    19.319534    93.962634   0.64449467    0.1018459   0.50043641     1.246777    1.2136631    1.6149414    1.8163891    4.6449936 
   15800    738.09401    -13272.21   -13266.963    5544.0971    39.489558    34.197716    19.149207    92.836481   0.64186341  0.083699566   0.68395093    1.4095139    1.1671127    1.6309283    2.1567722    4.9548131 
   15900    987.62933   -13271.778   -13264.757    7418.4492    37.642951    34.191478    16.457122    88.291551   0.63547476   0.13858975   0.45097152     1.225036    1.3293135    1.6106159     1.909188    4.8491175 
   16000    1185.3084   -13271.392   -13262.965      8903.29    37.417885    32.883134    16.781117    87.082136   0.96438407    0.2043576   0.52627691    1.6950186    1.7845444     1.722968    1.7506364    5.2581488 
   16100    824.52153   -13270.866   -13265.004    6193.2862    38.923549    33.837633    17.785303    90.546485    1.1673232   0.27997625    0.5500224    1.9973218    1.9973971    2.0051257    1.8301573    5.8326801 
   16200     975.6703   -13271.671   -13264.735    7328.6205    37.995666    31.919138    17.682726     87.59753    1.1784204    0.3427008   0.80037624    2.3214974    1.9462404    1.9426245    2.1196105    6.0084753 
   16300    1099.6932   -13269.838    -13262.02    8260.2022    35.021314    31.072689    17.457964    83.551967   0.96986173   0.27930997   0.59353686    1.8427086    1.6473485    1.7104199    1.8968098    5.2545782 
   16400    1015.4528   -13272.066   -13264.847    7627.4413    37.316111    29.945058    17.674686    84.935855   0.79492456   0.28002139   0.36559449    1.4405404    1.5966968      1.96531    1.6382705    5.2002773 
   16500    1066.1911    -13274.21    -13266.63    8008.5559    39.011674    31.654094    17.707194    88.372961    1.0769858   0.26611742   0.34455436    1.6876576    1.7528273     2.016694    1.8055104    5.5750316 
   16600    842.20526   -13274.101   -13268.113    6326.1152    35.844688     30.29162    18.500578    84.636886    1.6936859   0.18215252   0.31321419    2.1890526    2.3013035    1.6968913    1.6593501     5.657545 
   16700    1191.7508   -13274.833    -13266.36    8951.6808    35.971185    30.487258    17.579919    84.038362    2.3475312   0.16472673   0.32284633    2.8351042    3.0427623    1.5707667    1.6399012    6.2534303 
   16800    1029.6495   -13272.553   -13265.233     7734.078    36.200745    31.644596    18.696142    86.541482      2.40882   0.13345059   0.64756859    3.1898392     3.181198    1.7513023    1.8832064    6.8157067 
   16900     1120.416   -13271.334   -13263.369    8415.8591    36.786692    31.515097    19.510587    87.812376    2.4814295  0.087014227   0.94855145    3.5169951    3.2960514    1.6341493    2.1398646    7.0700653 
   17000    1015.1591   -13273.458   -13266.241    7625.2353    35.172865    31.269871    20.340962    86.783698    1.9387357  0.035531051    1.1072729    3.0815397    2.6588442    1.4834066    2.1786657    6.3209165 
   17100    971.04523   -13273.334   -13266.431    7293.8799    35.471013    30.874702    20.369591    86.715305    1.5906976  0.044893574    1.1536705    2.7892616    2.4235814    1.2408725    2.1246577    5.7891116 
   17200    1058.5433   -13271.391   -13263.865    7951.1104    33.692997    29.665722    19.756246    83.114965    2.1743805   0.13052433    1.2530622     3.557967    2.7511262    1.1076019    2.3793632    6.2380913 
   17300    876.78565   -13272.755   -13266.522    6585.8613    32.840936    28.955339    19.282737    81.079012    1.8871234   0.18876595    1.0915483    3.1674377    2.6673938     1.459984    2.1516363    6.2790142 
   17400    1054.7466    -13272.98   -13265.482    7922.5915    32.899069    28.528747    19.694001    81.121816    1.5356802   0.11465265    0.9293435    2.5796763    2.4611773    1.6432202    2.2742735     6.378671 
   17500    1086.3186   -13270.613    -13262.89     8159.741    33.405236    30.264712     20.77576    84.445708     1.569844   0.11175677   0.72811933    2.4097201    2.4721792    1.4080361    1.9918506    5.8720659 
   17600    1144.7087   -13270.197   -13262.059    8598.3307    33.986464    29.169865    20.479027    83.635357    2.2201671  0.092293382   0.70967509    3.0221356    2.9516245    1.3473775    1.5741665    5.8731684 
   17700    927.84435   -13272.577   -13265.981    6969.3821    35.558938     28.86619    21.305236    85.730365    2.1606143  0.098547928   0.85186264    3.1110248    3.0005518    1.3373845    1.7934293    6.1313656 
   17800    989.90182   -13272.487    -13265.45    7435.5187    35.946252    27.905185    21.703476    85.554913    1.7983183  0.086402097   0.82313661     2.707857    3.0327264    1.4292965    2.1149232    6.5769461 
   17900    1145.5452   -13271.505   -13263.361     8604.614    37.471502    30.728418    22.092275    90.292196    1.8389625  0.069443471    1.1044405    3.0128465    3.0180343     1.541123    2.3249656    6.8841229 
   18000    869.64769   -13272.036   -13265.854    6532.2454    38.661023    31.748109    22.736904    93.146036    1.6558273  0.077813247    1.3477912    3.0814317    2.5206697    1.5973816    2.2743883    6.3924396 
   18100    996.93014   -13271.448   -13264.361     7488.311     41.17229    32.134906    21.296295    94.603491    1.4972117  0.059273642    1.0721538    2.6286391    2.4390843    1.4226622    1.9122757    5.7740222 
   18200    952.22498   -13272.618   -13265.849    7152.5141    38.371353    32.597154    20.435064    91.403571    1.9825502  0.042342067   0.77113006    2.7960223    2.9515075    1.1551583    1.5592758    5.6659415 
   18300    1051.4725   -13272.676   -13265.201    7897.9988    40.003662    32.660703     20.29338    92.957746     2.439155  0.072548992   0.89406818    3.4057722    3.3485989    1.1710017     1.695119    6.2147196 
   18400    1015.3003   -13271.067   -13263.849     7626.296    40.224776    32.641366    20.129849    92.995992    2.7301875   0.22307262    1.1474861    4.1007462     3.493412    1.3237082    2.0743222    6.8914424 
   18500    830.26581    -13272.73   -13266.828    6236.4336    39.364165    32.099042    20.904623     92.36783    2.7008527   0.24952559    1.2576833    4.2080616    3.7156043    1.3404714    2.4645747    7.5206503 
   18600    1006.3077   -13273.566   -13266.412    7558.7496    36.487729    33.561521    21.090493    91.139743    2.7897968   0.44260886    1.1406213     4.373027    3.7135793    1.5491524    2.2088071    7.4715388 
   18700    987.05883   -13272.316   -13265.299     7414.164    39.139912    33.104899    22.175815    94.420625    2.3406476     0.424221    0.9237295    3.6885981    3.3211497    1.4943887     2.032615    6.8481534 
   18800    1174.0681   -13271.773   -13263.427    8818.8596    41.142299    32.289605    20.645735    94.077639    2.3324146   0.51793592    1.1515807    4.0019313    2.8947844    1.6133073    2.2120193     6.720111 
   18900    1037.9631   -13273.933   -13266.553    7796.5245    40.315223    32.573118    21.663143    94.551484     2.420963   0.36049532    1.2238188    4.0052771    2.9970212    1.6605143    2.3596727    7.0172081 
   19000    938.10744   -13272.162   -13265.493     7046.472    38.824475     33.58714     23.35524    95.766856    2.1845182     0.284355    1.1351299    3.6040031    3.0121598    1.5957342    2.2088176    6.8167116 
   19100    1077.7013   -13272.805   -13265.143    8095.0128    36.986776    35.285524    25.212391    97.484691    1.8031892   0.27077457    1.1536505    3.2276143    2.6719373    1.5410921     1.938878    6.1519075 
   19200    1066.9789   -13273.804   -13266.218    8014.4735    36.779731    35.076114    27.346703    99.202549    1.7810808   0.32717055   0.77870977    2.8869611    2.6036404    1.5023789    1.7792053    5.8852247 
   19300    924.76924   -13273.371   -13266.797    6946.2838    37.815283    36.218878     24.95258    98.986741    1.7585396   0.42587171   0.90775062     3.092162     2.579026    1.6174115    1.9340956    6.1305331 
   19400     1121.519   -13272.281   -13264.308    8424.1438     41.62812    35.824536    25.043514    102.49617    1.9451947   0.43850955   0.87062826    3.2543325    3.0914435    1.8700796    1.6872722    6.6487953 
   19500    881.97617   -13273.139   -13266.868    6624.8492    42.395277    37.574216    25.713062    105.68255    1.9472722   0.69429279    1.1432483    3.7848133    2.9417567    1.9434064    2.0006212    6.8857843 
   19600    1040.1999   -13273.137   -13265.742    7813.3258    44.197706    35.789445     24.64707    104.63422    2.0882376   0.62789829    1.4279385    4.1440743    2.9874344    1.7693446    2.5558264    7.3126054 
   19700    1182.7974   -13271.846   -13263.437    8884.4287    45.277638    37.051729     24.52323     106.8526     2.089078   0.31423604    1.3563357    3.7596497    3.0327295    1.5533388     2.527691    7.1137594 
   19800    861.66948   -13272.555   -13266.429    6472.3182    45.110309    36.962534     25.62528    107.69812    1.4821082   0.17190404   0.80297737    2.4569896    2.6168428    1.3933828    1.9418606    5.9520861 
   19900    1141.7995   -13272.984   -13264.867    8576.4784    45.950782    37.922584    25.874697    109.74806    1.3618064  0.077236184   0.67375647    2.1127991    2.4052351    1.3889289    1.8006535    5.5948174 
   20000    863.16645   -13272.736     -13266.6    6483.5625    46.527873     37.23431    22.768203    106.53039    1.3109584   0.12377603   0.79003883    2.2247732     1.992073    1.5170026      1.85645    5.3655257 
   20100    1034.3116   -13274.568   -13267.215     7769.097    44.293037    39.470008     24.83597    108.59902    1.2115178   0.14592115   0.84260371    2.2000427    1.9945303    1.4323141    1.8915975    5.3184419 
   20200      1026.53   -13273.984   -13266.686    7710.6462    44.918112    39.219852    27.601159    111.73912   0.96069388  0.085745092   0.85215457    1.8985935    1.9618186     1.427375    2.0010892    5.3902828 
   20300    1190.3257   -13272.725   -13264.262    8940.9764    45.692566    42.207042    28.144663    116.04427    1.0791895  0.091463363   0.77609918     1.946752    1.7652478    1.4258797    2.1810966    5.3722241 
   20400    849.87531    -13272.39   -13266.348    6383.7278    44.496054    37.678666    27.350842    109.52556    1.3701325   0.13753114   0.62326438     2.130928    2.0101296    1.6527408     1.869322    5.5321923 
   20500    998.01745   -13273.224   -13266.128    7496.4782     44.47417    41.975533    25.967456    112.41716    1.2450981   0.14647185   0.60260069    1.9941706    2.0150957    1.6974687    1.5978131    5.3103776 
   20600    1038.0929   -13274.083   -13266.703    7797.4995    43.583626      41.4558    28.333398    113.37282    1.1806148   0.14525035   0.92416931    2.2500345    2.2482217    1.6271277    1.8998056     5.775155 
   20700    949.89888   -13274.426   -13267.673    7135.0418    43.628507    41.456709    27.639452    112.72467    1.6493383  0.094561287    1.0293208    2.7732204    2.6827423    1.5702481    2.2118357    6.4648262 
   20800    1167.3706   -13273.471   -13265.172    8768.5523    42.689646    44.183109    25.647383    112.52014    2.1129976   0.17734522   0.81942896    3.1097717    2.7977415     1.547977    1.7679261    6.1136446 
   20900    1025.6575   -13273.014   -13265.722    7704.0929    40.177741    42.990566    25.890217    109.05852    2.1550345   0.37583748   0.97007163    3.5009436    2.8889681    1.7026946    1.8329057    6.4245684 
   21000    946.73948   -13270.711    -13263.98    7111.3104    41.990324    43.149562    26.746169    111.88605    1.7144304   0.36819851    1.1121573    3.1947863    2.5905146    1.6139151    2.3123091    6.5167388 
   21100    1086.8809   -13273.055   -13265.328    8163.9646    39.977501    43.706817    26.663195    110.34751    1.2157133   0.37834074    1.0147941    2.6088481    2.1892846      1.64175    2.2752122    6.1062468 
   21200    847.75166   -13273.154   -13267.127    6367.7763    39.661588    43.015873    25.779915    108.45738    1.1255328   0.55877737    1.2048493    2.8891595    1.7747302    1.8015915     2.320221    5.8965427 
   21300    1028.7211   -13272.859   -13265.546    7727.1044    40.895343    43.940828    25.722009    110.55818    1.3048047    0.5719736     1.343461    3.2202392    2.0266036    1.7798839    2.3749542    6.1814418 
   21400    1206.9724   -13273.174   -13264.593    9066.0158    39.980736    46.957972    26.722603    113.66131    1.5885342   0.71302136    1.2297735     3.531329    2.4216623    1.9755325    2.3154285    6.7126233 
   21500    718.52476   -13272.646   -13267.538    5397.1052    38.752239    44.787121    27.746899    111.28626    1.2661004   0.91668181    1.0346049    3.2173871    2.2202564     2.449924    2.3976295    7.0678099 
   21600    1087.8368   -13274.012   -13266.278    8171.1443    39.332549    46.502841    28.314205     114.1496    1.0805152     1.162782   0.96024446    3.2035417    1.9185317    2.6665479    2.7544318    7.3395114 
   21700    1152.6239   -13272.751   -13264.557    8657.7842    40.057481    48.585943    27.866675     116.5101    1.1185708    1.4289951   0.75108456    3.2986504    2.1140229     3.056626    2.8850247    8.0556736 
   21800    840.32536    -13273.51   -13267.536    6311.9946     41.24939    47.300554    30.147455     118.6974     1.189053    1.5714188   0.60945733    3.3699291    2.1470103    3.0323634    2.7697049    7.9490786 
   21900    1206.1203   -13275.013   -13266.438    9059.6159    40.297674    50.118423    30.028494    120.44459    1.1307258    1.2422518   0.76915967    3.1421373     2.002267    2.6637359     2.448138    7.1141409 
   22000    888.00798   -13275.372   -13269.059    6670.1564    38.718249    50.468984    29.653959    118.84119    1.1274641   0.97319041   0.85382197    2.9544765    1.8825361    2.3721038    2.5076035    6.7622434 
   22100    1081.7994   -13276.715   -13269.024    8125.7952    38.371384    49.678133    29.899513    117.94903    1.2456476   0.79581893    0.7915588    2.8330253    1.9899783    2.1854257    2.2684098    6.4438139 
   22200    1142.0599   -13274.549    -13266.43    8578.4342    39.164591    49.398885    29.820974    118.38445    1.0925706   0.57521909   0.75353097    2.4213207    1.8664921    1.9083452    2.2342391    6.0090764 
   22300    1019.7357   -13276.236   -13268.987    7659.6122    40.564117    49.940692    28.954619    119.45943    1.0065223   0.43725575   0.90501211    2.3487902    1.7687307    1.5720647    2.1569264    5.4977217 
   22400      974.687   -13275.745   -13268.816    7321.2345     38.05676    50.756982    27.272138    116.08588   0.84978054   0.46644667   0.84509783     2.161325    1.4814496    1.4682088    1.8375943    4.7872526 
   22500    1084.1671   -13275.047   -13267.339      8143.58    37.312195    50.781787    26.462317     114.5563   0.55599973   0.47331507   0.80592123     1.835236    1.3066223    1.6301715    1.6079595    4.5447533 
   22600    1030.6176   -13275.165   -13267.838    7741.3502    38.373433    52.072621    26.947479    117.39353   0.49156056   0.31022405   0.69860453    1.5003892     1.210219    1.4742406     1.450136    4.1345955 
   22700    1001.3654   -13275.075   -13267.956    7521.6258    37.140738     52.17928    28.098813    117.41883   0.55732816   0.33804903    0.6064827    1.5018599    1.2487448      1.35098    1.4208288    4.0205536 
   22800    1006.8963   -13274.812   -13267.654    7563.1706    35.623577    52.506218    28.718596    116.84839   0.68258477   0.22134929   0.66526835    1.5692024    1.2804445    1.3206063    1.4427598    4.0438106 
   22900    1095.2592   -13274.502   -13266.715    8226.8971    36.389841    52.840559    26.800392    116.03079    1.0481965   0.17937226   0.82197243    2.0495411    1.4669892    1.4352627    1.6809622     4.583214 
   23000    761.31076   -13274.373   -13268.961    5718.4867    36.011178    50.191637    26.488671    112.69149    1.0828741   0.12016436   0.87417965    2.0772181    1.8092146    1.5201049    1.6736793    5.0029988 
   23100    1177.0166   -13275.406   -13267.038    8841.0071    39.474634    50.577523    27.630982    117.68314    1.2384125  0.097861735   0.80554819    2.1418224    1.8336704    1.5289261    1.7894424    5.1520389 
   23200    842.65975   -13274.365   -13268.375    6329.5291     39.75327    52.409167    28.531337    120.69377    1.3312526   0.14737363   0.92892289    2.4075492    1.9862595    1.5574363    2.3342281    5.8779239 
   23300    915.24509   -13276.774   -13270.268    6874.7444    39.177209    51.835869     28.66447    119.67755    1.3354331  0.079406952   0.75094993      2.16579    2.0632187    1.5375202    2.1878851     5.788624 
   23400    1033.7401   -13276.159    -13268.81    7764.8041    36.835694    52.149382    29.140779    118.12585    1.0281123   0.11579982   0.83882992     1.982742    1.9091743    1.3956171    1.9006415    5.2054329 
   23500    1015.2492   -13274.513   -13267.295    7625.9125    38.109426    52.195362    29.713882    120.01867    1.0000454  0.096527265   0.78385148    1.8804241     1.825478    1.3802748    1.8638037    5.0695566 
   23600    968.73486   -13276.407    -13269.52    7276.5259    38.477439    49.821248    28.429323    116.72801   0.93540205   0.14551475   0.80079117     1.881708    1.7216051    1.3916555    1.6354207    4.7486813 
   23700    979.58073   -13276.135   -13269.171    7357.9932    37.189828    52.212709    29.481336    118.88387    1.1444169   0.38672337   0.78353583    2.3146761    1.9403078    1.5885763    1.7200355    5.2489197 
   23800    979.31885   -13274.137   -13267.174    7356.0261    37.714186    51.266719     28.63456    117.61547    1.0219325   0.42543227   0.86990284    2.3172676    1.8879388       1.6668    1.8692199    5.4239588 
   23900    1076.9833   -13274.961   -13267.304    8089.6196    39.476587    54.279234    29.453503    123.20932    1.1997411   0.34614168     0.745879    2.2917618    1.7894347     1.981804    1.9013174    5.6725561 
   24000    1007.0605   -13275.642   -13268.482    7564.4036    40.578494    52.714035    31.045311    124.33784    1.4177329   0.40807078   0.85233888    2.6781425    1.7046434     1.869001    2.1235782    5.6972226 
   24100    825.09086   -13275.201   -13269.335    6197.5626    40.831677    51.513996    31.583791    123.92946    1.5029816   0.38889783    1.3432289    3.2351084    1.8203778    1.7196662    2.2372451    5.7772892 
   24200    1013.6043   -13274.043   -13266.837     7613.557     40.34515    51.571159      31.8634    123.77971     1.878184   0.29940465    1.4941724    3.6717611    2.3498661    1.5944495    2.1718904    6.1162059 
   24300    959.04623   -13273.841   -13267.023    7203.7509    42.901236    52.141517     31.31941    126.36216    1.9537364   0.42289952    1.2609461     3.637582    2.3602192    1.6918198    2.0591228    6.1111618 
   24400    823.88492   -13274.922   -13269.065    6188.5044    41.009046    52.751055    30.429794    124.18989     1.559433   0.43554211   0.98729136    2.9822665    2.1057757    1.6203632    1.8160762     5.542215 
   24500    895.96614   -13275.604   -13269.235     6729.933    42.032033    51.201873    30.871415    124.10532   0.81926651   0.40336955   0.98352496     2.206161    1.6116715    1.6468587    1.7177828     4.976313 
   24600    975.26041   -13274.452   -13267.519    7325.5416    42.850993    50.471416    30.766394     124.0888    0.7885682   0.39753627    1.1727914    2.3588959    1.3202458    1.6346072    1.8375697    4.7924227 
   24700    997.81445   -13275.772   -13268.679    7494.9534    43.446422    49.594292    31.421401    124.46211   0.57564423   0.38345653    1.1835705    2.1426713    1.3086162    1.6351993    1.9943919    4.9382074 
   24800    776.39269   -13275.199    -13269.68    5831.7726    41.436377    49.228389    30.590014    121.25478   0.45597616   0.26912836    1.2030898    1.9281943     1.253753    1.6308448    1.9209272     4.805525 
   24900    996.26298   -13274.397   -13267.315    7483.2997    40.720928     49.04363    31.832883    121.59744   0.38100514    0.2903852    1.1481456    1.8195359    1.0578254    1.4221056    1.8211905    4.3011214 
   25000    1096.7029    -13273.78   -13265.983    8237.7412    42.776736    44.696458    30.549041    118.02224   0.39762144   0.31432409    1.2104137    1.9223592    1.1248017    1.5571634    1.8157197    4.4976848 
   25100    880.31283   -13274.311   -13268.052    6612.3553    44.878195    46.928726    31.674853    123.48177   0.19994637   0.30608745    1.3710209    1.8770547    1.1361492    1.6202292    1.9764634    4.7328419 
   25200    990.81133   -13275.281   -13268.237    7442.3503    46.505581    46.846546    31.230354    124.58248   0.15049481   0.34972413    1.4306212    1.9308401    1.2055687    1.5791245    1.9975343    4.7822274 
   25300    1249.5962   -13274.127   -13265.243    9386.1795    47.394671    47.992905    33.638866    129.02644   0.24999836   0.37706946    1.3024506    1.9295184    1.1368601    1.6232579    2.2400801    5.0001982 
   25400     942.3031   -13273.879    -13267.18    7077.9871    46.692015    48.534299    33.092552    128.31887   0.24519064   0.40494054    1.4577596    2.1078908    1.1876113    1.7313163     2.347346    5.2662736 
   25500    855.56013   -13273.914   -13267.832    6426.4286    47.182711    48.106515    30.427131    125.71636   0.37209779   0.44750032    1.5391309    2.3587291    1.4283822    2.0628845    2.4630148    5.9542815 
   25600    1078.2874   -13272.916    -13265.25    8099.4153    48.125766    47.942031    31.052513    127.12031   0.47808253   0.50452309    1.3629983    2.3456039    1.5765528     2.261375    2.2875459    6.1254736 
   25700     878.4805   -13273.582   -13267.337     6598.592    50.938457    51.388781     30.78991    133.11715   0.47696534   0.63121927    1.7165038    2.8246884    1.6485637    2.2049036    2.4644246    6.3178919 
   25800    977.17598   -13273.844   -13266.897    7339.9302    48.748082    51.845428    32.439833    133.03334   0.48238401   0.58105409     1.307013    2.3704511    1.7547826    2.0617434    2.4658809    6.2824069 
   25900     981.9393    -13274.07   -13267.089    7375.7093    49.041182    50.345976    33.173282    132.56044    0.6562308   0.31660585    1.3524095    2.3252461    1.7498292    1.7893305    2.4730964    6.0122562 
   26000     925.9467   -13273.633    -13267.05    6955.1282    48.605777    48.691221    32.504162    129.80116   0.39343004   0.35328736      1.28093    2.0276474    1.5215452     1.614501    2.6771033    5.8131496 
   26100    1106.3028   -13273.951   -13266.086    8309.8499    49.876129    47.123452    34.496485    131.49607   0.58463968   0.33707589    1.0988458    2.0205613    1.7481098    1.5657558     2.336427    5.6502926 
   26200    1195.3286   -13274.678    -13266.18    8978.5553    47.524211    51.067769    33.034746    131.62673   0.78191985    0.3288973    1.0071839    2.1180011    2.0617607    1.4062069    2.2115347    5.6795023 
   26300    930.97561    -13274.77   -13268.151    6992.9022     46.49784    49.448628    31.491988    127.43846   0.80177634   0.32096758    1.1561454    2.2788893    2.1760829    1.1468242      2.43563    5.7585371 
   26400    900.56606   -13272.027   -13265.625    6764.4847    48.392501    46.940745    30.688236    126.02148   0.82872998   0.41466498    1.2314725    2.4748675     2.139485    1.0021062    2.7029817     5.844573 
   26500    998.45793   -13273.393   -13266.294    7499.7868    47.598977     44.56303    30.604387    122.76639   0.72635806   0.47205432   0.64742715    1.8458395    2.3181406    1.2454016    2.2808758    5.8444179 
   26600    1047.4868   -13275.398   -13267.952     7868.061    45.115893    41.874707    30.538657    117.52926   0.76534816   0.55872216   0.65391274    1.9779831    2.1566659    1.5406347    1.8919903    5.5892909 
   26700    982.62634   -13274.791   -13267.805    7380.8699    45.004748    42.725778    32.442614    120.17314   0.88347526   0.51891877   0.76778456    2.1701786    2.2248385    1.6676727     2.026963    5.9194743 
   26800    1141.8079   -13273.469   -13265.351    8576.5418    44.016556    43.252584    32.018747    119.28789    1.2660424   0.39268474   0.88962778    2.5483549    2.3687665    1.5123326    2.0831558    5.9642549 
   26900    1035.7669   -13273.754    -13266.39    7780.0279    44.525746    43.127762    31.807119    119.46063    1.6277038   0.44182974   0.80192172    2.8714552    2.5391904    1.5394917    1.8176939     5.896376 
   27000    1013.6044   -13274.039   -13266.833    7613.5575    44.619468    41.894645    32.552591     119.0667    1.7783809   0.51469877   0.74187478    3.0349545    2.7055032    1.6998841    2.0713967    6.4767839 
   27100    1017.0162   -13274.537   -13267.307     7639.185     43.03942    39.569925    29.789579    112.39892    2.3128471   0.56610648   0.64640732    3.5253609    3.2031199     1.895487    2.1574712     7.256078 
   27200     895.2879   -13275.075    -13268.71    6724.8386    45.681447    41.390942    28.693495    115.76588    2.5044828   0.55279254   0.82715919    3.8844345    3.4167801    1.8727418    2.3606933    7.6502153 
   27300    1137.3742   -13273.342   -13265.256    8543.2381    45.851004    38.304092    29.707531    113.86263    2.6183381   0.45982764   0.84069489    3.9188606    3.3822492    1.6184968    2.4426332    7.4433791 
   27400    994.21743   -13274.175   -13267.107    7467.9349    43.839645    42.099168    28.357183      114.296    2.5880695   0.19885351   0.75710671    3.5440297    3.1012962    1.3187463    2.2370242    6.6570666 
   27500    882.27801   -13274.527   -13268.255    6627.1165    43.650786    41.339237    29.978514    114.96854    2.2551175   0.24654488   0.69394865     3.195611    3.0958268    1.1597835    2.0956338    6.3512442 
   27600     1094.577    -13274.32   -13266.539    8221.7726    42.787591    40.612518      29.3582    112.75831    2.0093032   0.25136657   0.65655659    2.9172264    2.9183163    1.2876267    2.2138522    6.4197952 
   27700    905.23578   -13273.716    -13267.28    6799.5608     40.42883    39.984655    27.482466    107.89595    2.0674593   0.23026719   0.76844359      3.06617    2.8651778    1.3085551    2.4225258    6.5962587 
   27800    1032.8668   -13274.153    -13266.81    7758.2446    42.671161    40.825481    28.355743    111.85239    1.8887602   0.37955199    1.1905754    3.4588876    2.6866003    1.6151244    2.4834687    6.7851934 
   27900    1021.3903   -13274.528   -13267.267    7672.0401    42.302185     40.74488    30.497629    113.54469    1.5609722   0.50064007    1.3127339    3.3743462    2.4474275    1.7829078    2.6153032    6.8456385 
   28000    1042.9616   -13276.466   -13269.051      7834.07     42.02849    42.622336    30.936048    115.58687     1.322634    0.5875992   0.96728672    2.8775199    2.3153444    1.6975081    2.3153834    6.3282359 
   28100    932.25751   -13273.781   -13267.154     7002.531    42.464812    42.033749    31.895779    116.39434    1.1433722   0.49977095   0.76549849    2.4086416    2.2095391    1.5274665    2.0586261    5.7956317 
   28200    1060.2298    -13274.49   -13266.953    7963.7784    41.474163    42.131082    30.096775    113.70202    1.2225381    0.4394407   0.80733158    2.4693104    2.2548583    1.6039516    2.0794792    5.9382891 
   28300    1080.0595    -13274.67   -13266.991     8112.726    42.887174    42.092305    30.491909    115.47139    1.8887051   0.47019669    1.0946104    3.4535121    2.8810897    1.6849424    2.1271886    6.6932207 
   28400    873.44098   -13274.114   -13267.905    6560.7383    45.600298    40.272904    29.898424    115.77163    2.9885282   0.38650254    1.5451649    4.9201957    3.5909334    1.6118849    2.1441998    7.3470181 
   28500    1170.9477   -13273.741   -13265.417    8795.4213    46.939145    41.698045    30.458411     119.0956    3.6343942   0.41561705    1.5987607    5.6487719    4.1396158    1.8004162    2.3275142    8.2675462 
   28600    936.35466   -13273.201   -13266.544    7033.3062    46.753144    40.692941    31.954626    119.40071    3.2013334    0.6599996    1.2855586    5.1468916    4.3086351    1.9187346    2.2019273     8.429297 
   28700    941.41649    -13274.98   -13268.288    7071.3275    49.791147     41.61005    31.397593    122.79879    2.6818085    0.9028565    1.2421803    4.8268453    4.0235316    2.2933993    2.1886931     8.505624 
   28800    968.47738   -13273.849   -13266.963    7274.5918     48.55476    41.466593    30.787962    120.80932    2.6591745    0.9400965    1.3042509    4.9035219    3.7450758    2.4591175    2.1868585    8.3910518 
   28900    905.85135   -13272.254   -13265.814    6804.1846    48.916116    42.659379     31.93193    123.50743    2.6873585   0.82516332    1.4682254    4.9807473    3.8498159    2.7050648    2.2608892    8.8157698 
   29000    972.44706   -13272.835   -13265.922    7304.4096    49.143386    43.345589    31.833557    124.32253    2.6916185   0.74320736    1.6749801     5.109806    3.7354936    2.6157065    2.3157886    8.6669887 
   29100    959.08505   -13275.443   -13268.625    7204.0426    47.854722    42.433949    32.737493    123.02616    2.4490637   0.94054484     1.383702    4.7733105     3.841683    2.5238791    2.5251443    8.8907064 
   29200    986.74848    -13274.65   -13267.635    7411.8328    48.318814    43.067545    31.648828    123.03519    2.5022128    1.0187593    1.5107898    5.0317619    3.8294923    2.9275846    2.3468552    9.1039322 
   29300    1050.8787   -13274.597   -13267.126    7893.5387    50.279492    41.122576    31.787691    123.18976    1.5908376   0.99040485    1.4015571    3.9827996       2.9405    3.1051679    2.2500807    8.2957486 
   29400    1031.4438   -13275.185   -13267.852    7747.5561    51.232553    41.429487    33.378818    126.04086    1.4792731    0.9721676    1.2213426    3.6727833    2.8305936    2.8823909    2.4536977    8.1666822 
   29500    965.31914   -13275.285   -13268.422    7250.8691    48.367931    42.214515    34.096629    124.67908    2.4445861    1.1174253    1.0533887    4.6154001    3.5451203    2.6756176    2.4267337    8.6474716 
   29600    928.80884   -13275.907   -13269.304    6976.6267    46.107879    43.709471    34.801624    124.61897    2.4288946    1.0360499    1.2105156    4.6754601    3.6277433    2.5330549    2.5003309    8.6611291 
   29700    1070.6003   -13274.838   -13267.227    8041.6745    49.505158    44.392074    33.464482    127.36171    1.7783109   0.98881579    1.4131616    4.1802883    3.3545967    3.2011469    2.4463611    9.0021047 
   29800    946.16264   -13275.685   -13268.958    7106.9776    49.568912    41.305146    32.752103    123.62616    2.2748125    1.0937651    1.1621029    4.5306806    3.6864155    3.1431854    2.0808197    8.9104207 
   29900    913.93923   -13275.782   -13269.285    6864.9356     48.26593    40.530305    32.545598    121.34183    3.0095701   0.88189996    1.0522023    4.9436724    4.2247213    2.8010124    2.0689549    9.0946886 
   30000    1052.2877   -13276.065   -13268.584    7904.1218    48.328547    40.523511    31.423633    120.27569    2.9468394   0.84427002    1.1136796     4.904789    4.0262635    2.5723428    2.1088056    8.7074119 
   30100    926.26072   -13276.781   -13270.196    6957.4869     46.13496    43.264305     31.94054    121.33981    2.2233087   0.69440208    1.1360956    4.0538064    3.3313195    2.4255175     2.213523    7.9703599 
   30200    763.72953   -13276.932   -13271.502     5736.655    48.023778    43.749951    31.726882    123.50061    1.8429309   0.63218823    1.0281506    3.5032696    3.1538204    2.3964262    2.0703885    7.6206351 
   30300     990.1169   -13275.627   -13268.588    7437.1342    47.280807    42.810195    34.364211    124.45521    1.8776727   0.85840593    1.1956086    3.9316872    3.2485656    2.4727543    2.4067985    8.1281184 
   30400     958.4579   -13274.105   -13267.291    7199.3318    47.652836    41.239161    35.220161    124.11216    1.8748548    1.0382565     1.132763    4.0458743    3.2596948     2.706289    2.2601656    8.2261494 
   30500    981.07743   -13273.887   -13266.912    7369.2355    50.731669    42.594646    36.211589     129.5379    1.9412019   0.70214876    1.0473897    3.6907403    3.2134503    2.4432439    2.1803227    7.8370168 
   30600    1062.4152   -13274.306   -13266.753    7980.1932    48.998884    42.580388    36.348452    127.92772    2.1527235   0.70475545    1.1003358    3.9578148    3.2571924    2.4119162    2.2336235     7.902732 
   30700    1097.2245   -13275.051    -13267.25    8241.6587    50.180504     43.24307    34.669488    128.09306    1.9616405   0.63709359   0.98576535    3.5844994    3.2512267    2.1224072    2.1743706    7.5480045 
   30800    877.04606   -13275.393   -13269.157    6587.8174    49.043614    44.428716     33.40651    126.87884    1.5570822   0.67516555   0.97785505    3.2101028    2.8594294    2.2011644    2.0817412     7.142335 
   30900    950.25114   -13273.477   -13266.721    7137.6877    48.634084    47.585305    34.829295    131.04868    1.6529223   0.66512289   0.99697248    3.3150177    2.7857281    2.3015129    2.1670215    7.2542625 
   31000    947.53818   -13273.958   -13267.222    7117.3097    49.867956    47.495473    34.075147    131.43858    1.8808549   0.75167209    1.1062756    3.7388026    3.0573015    2.4082373    2.5458027    8.0113415 
   31100    937.73233   -13275.009   -13268.342    7043.6544    52.406196    47.616335    34.579967     134.6025    1.4469461    0.6487484   0.93825464    3.0339491    2.7387325    2.5200254    2.3957424    7.6545002 
   31200    951.64775   -13274.885   -13268.119    7148.1782    55.018471    48.994823    33.785988    137.79928    1.1614552   0.54355183    0.7779091    2.4829161     2.300785    2.2662377     2.251388    6.8184108 
   31300    1093.2871   -13274.609   -13266.837    8212.0835    51.251253    50.480395    33.360046    135.09169    1.2288001   0.81570082   0.44856902      2.49307     2.236608    2.5175354    1.9619499    6.7160933 
   31400    904.75429   -13275.065   -13268.633    6795.9441    53.079186    48.256255    30.901313    132.23675    1.5133795    1.4967918   0.44952249    3.4596938    2.6355074    3.2724758    2.0010306    7.9090138 
   31500    1025.7041   -13274.811   -13267.519    7704.4431    53.429785    47.288348    30.335611    131.05374    1.8536414    1.6446354   0.32205375    3.8203306    2.7440895    3.5547967    2.1893659     8.488252 
   31600    1005.4219   -13275.116   -13267.968    7552.0958     57.10962    50.478243    32.200336     139.7882    2.2943959    1.2913713   0.35645097    3.9422182    3.0100575    3.3912723    2.1282438    8.5295736 
   31700    1097.0476   -13273.959    -13266.16    8240.3305    56.673681    50.201805    31.549319    138.42481    2.2247399    1.0557032   0.39049524    3.6709384    2.9858999    2.8371373    2.2598158    8.0828531 
   31800    909.91545    -13274.82   -13268.351    6834.7115    56.132943    49.510213    29.363747     135.0069    2.1747279    1.3532121   0.49683895     4.024779    2.9195286    2.9728626    2.5637393    8.4561304 
   31900    870.48944   -13274.834   -13268.645    6538.5682    54.086635    52.175605     30.83472    137.09696    2.4597511    1.8241279   0.41016827    4.6940474    3.1075079     3.755402    2.2567546    9.1196645 
   32000    1202.6744    -13274.24    -13265.69    9033.7325    57.130735    51.224571    31.548224    139.90353    2.1739704    1.9604517   0.43480824    4.5692304      2.99374    3.8071514     2.246068    9.0469593 
   32100    869.10558   -13273.666   -13267.487    6528.1735     57.56471    48.561323     30.06432    136.19035    1.5404772    2.2112833   0.58174202    4.3335026    2.5082708    3.7310158    2.4956734      8.73496 
   32200    1005.6128   -13275.892   -13268.742    7553.5298    58.429309    48.910096    32.983933    140.32334    1.5251676    1.9185988   0.48600447    3.9297708    2.2321045    3.7465269    2.5295286      8.50816 
   32300    981.51905   -13274.031   -13267.053    7372.5527    59.271876    50.535428     33.26591    143.07321    1.4891409    2.0674539   0.58515193    4.1417467     1.916741    3.7907208    2.9170476    8.6245095 
   32400    1133.3917   -13274.549   -13266.491    8513.3241    62.016301    52.719051    34.598698    149.33405    1.6283899    2.3021137   0.77215319    4.7026567    2.0588165    3.5207862    3.3366005    8.9162032 
   32500    1002.1211    -13275.48   -13268.356    7527.3022    61.817527     52.98615    33.522329    148.32601    1.8670264    1.7478315   0.72065616     4.335514    2.2547136    2.9966409    3.3913381    8.6426926 
   32600    924.51437   -13275.647   -13269.075    6944.3694    62.595898     54.13578    35.176574    151.90825    1.6288498    1.1051945   0.53425813    3.2683024    2.0749161    2.5413766    3.1073598    7.7236526 
   32700    843.80754   -13274.695   -13268.696    6338.1505    63.106984    51.772535    38.023546    152.90307    1.5014825   0.79517158   0.55848389     2.855138    2.1014524    2.3514533    2.9686354    7.4215411 
   32800    1152.1276   -13275.994   -13267.803    8654.0562    63.326193    51.917936    38.101313    153.34544    1.5575301   0.97520378   0.76682958    3.2995635    2.1664572    2.3950724    3.1895717    7.7511012 
   32900     787.9586   -13274.611   -13269.009    5918.6485    66.661372    53.727584    36.888392    157.27735    1.5389143    1.0253716   0.65617655    3.2204624      1.94467    2.6887263    3.1428605    7.7762568 
   33000    1240.7624   -13275.449   -13266.628     9319.825    65.526471     53.94729    40.591897    160.06566     1.474552   0.90445664   0.49115689    2.8701656    1.9371922    2.5819551    3.0083795    7.5275268 
   33100    995.64912   -13275.211   -13268.133    7478.6888    68.364692    51.878476    40.633083    160.87625    1.7585116   0.81361869    0.6332435    3.2053737    2.1246224      2.49939     3.304595    7.9286074 
   33200    1096.5007   -13274.141   -13266.345    8236.2223    66.631273    53.968163    41.659645    162.25908    2.0930324    1.0103945   0.38091166    3.4843385    2.8516309     2.751282    2.9345332    8.5374461 
   33300    1041.8855   -13275.138   -13267.731     7825.987    68.634106    53.023884    42.066863    163.72485    2.4375707    1.2942638   0.38361832    4.1154528    3.2682476    2.9837276     2.903871    9.1558462 
   33400    920.43716   -13274.375   -13267.831    6913.7439    67.485125    52.917679    43.645795     164.0486    2.3368148    1.1421684    0.3945176    3.8735008    3.3067206    2.8492586    2.9544847    9.1104638 
   33500     1183.039   -13275.195   -13266.785    8886.2434    67.408311    53.860219    45.735339    167.00387    1.9046975    1.0107502   0.27335542    3.1888031    2.9683751    2.9094697    3.0272892     8.905134 
   33600    915.28305   -13276.071   -13269.564    6875.0295      69.3509    56.902134    44.458598    170.71163    1.7099615    1.4159455   0.35676546    3.4826725    2.7317838     3.008425     3.091616    8.8318248 
   33700    1134.9454   -13275.239   -13267.171    8524.9946    69.754796    57.863828    46.023214    173.64184    1.5027675    1.7134641   0.72232237     3.938554    2.3772657     3.058155    3.3070122    8.7424329 
   33800    1126.3472   -13274.828   -13266.821    8460.4108    67.414499    58.683496    45.927921    172.02592    1.5186034    1.6390298   0.73834464    3.8959779     2.615113    3.1954893    3.3221248    9.1327271 
   33900    848.12942   -13275.784   -13269.755    6370.6138    66.142077    57.213896    42.416956    165.77293    1.7803505    1.5980845   0.58800573    3.9664408    2.6301325    3.2516811    3.4331886    9.3150022 
   34000    1012.5434    -13275.63   -13268.431    7605.5882    66.898101    59.919796    44.379717    171.19761    1.8805244    1.6403089   0.72609737    4.2469307    2.8210725    3.0986694    3.6982155    9.6179574 
   34100    1259.0423   -13275.884   -13266.933    9457.1323    67.889922    60.839297    43.543411    172.27263    1.8260147    2.0400579    0.5560169    4.4220895    2.6795106    3.2987866    3.2935389     9.271836 
   34200    871.97795   -13275.687   -13269.487    6549.7489     64.70874    63.635119    43.295994    171.63985     2.032889    2.4473477   0.48969177    4.9699285    2.9637569    3.9285982     3.189939    10.082294 
   34300    1054.6529   -13274.792   -13267.294    7921.8877    66.575101    61.711354    43.280994    171.56745    2.2228931    2.7771348   0.43206071    5.4320886    3.4173155    4.2020036     3.140125    10.759444 
   34400    874.36607   -13273.351   -13267.134     6567.687    64.112448     62.89903    45.603271    172.61475    3.1918359    2.9295461   0.58653333    6.7079153    3.9512527    4.5245045    3.2294869    11.705244 
   34500    902.02095   -13274.561   -13268.148     6775.413    63.653667    58.798702    42.346483    164.79885    3.0836563    2.8207339    0.7003063    6.6046965    4.0232662    4.2501797     3.200705    11.474151 
   34600    936.28505    -13275.12   -13268.464    7032.7833    64.081963    59.119224    42.313003    165.51419    2.3226695    2.5339504   0.61458284    5.4712027    3.2153249    4.2157759    3.3588218    10.789923 
   34700    1173.6084   -13274.177   -13265.833    8815.4065    62.159996    60.449484    44.229409    166.83889     1.670854     2.268551   0.76080802     4.700213    2.7841299    3.7909843    3.5894323    10.164547 
   34800    1049.2741   -13275.369    -13267.91    7881.4862     63.29755    60.037569    42.049601    165.38472    1.6807385    2.5905921   0.87038767    5.1417183    2.5369835      3.85349    3.8084332    10.198907 
   34900    925.82688   -13273.513   -13266.931    6954.2281     64.71342    60.665829    44.115933    169.49518    1.4805586    2.5144499   0.90943352    4.9044421       2.5409    3.6865093    3.3842328    9.6116421 
   35000    1216.6914   -13273.792   -13265.142    9139.0191    64.412964     62.99272    44.394118     171.7998    1.2591581    2.6027148   0.78977884    4.6516517    2.3614734    3.7783419    3.0899252    9.2297405 
   35100    995.36672   -13274.496    -13267.42    7476.5676    64.602844    60.857863    44.601315    170.06202    1.5103768    2.5251816   0.53861183    4.5741702     2.539259    3.9819365    3.1283183    9.6495139 
   35200    808.59456   -13274.001   -13268.252    6073.6528    65.043347    63.173758      45.6134     173.8305    1.8672979    2.3938728   0.65497719    4.9161478    2.9399896    3.7173896    3.2219449    9.8793241 
   35300    963.07828   -13275.366   -13268.519    7234.0372    65.232469    63.230301    45.484357    173.94713    2.1878877    1.9293306   0.99700931    5.1142276    3.2457196     3.302904    3.5373524    10.085976 
   35400    1081.3997   -13274.989   -13267.301    8122.7934    64.361559    63.231966    46.081467    173.67499      2.19729      1.41068    1.1743797    4.7823497    3.3966896    3.1903238    3.7969786    10.383992 
   35500    842.47718   -13275.469   -13269.479    6328.1577    62.662663    63.236773    46.583164     172.4826    2.1284666     1.263854    1.4987918    4.8911124    3.3314491    2.8749443    4.0773825    10.283776 
   35600    848.81393   -13273.556   -13267.521    6375.7554    60.490831    61.920843    46.490648    168.90232    2.0361806   0.98151925    1.4222663    4.4399662     3.009608    3.0196754    4.2392448    10.268528 
[...]
  991500    10220.624    -13937.58   -13864.919    76770.885    818.37457    461.66737    545.19702     1825.239    77.783059    150.37756    62.769525    290.93014    92.744108    81.657322    52.741939    227.14337 
  991600    5093.7611   -14086.596   -14050.383    38261.124    822.47495    466.73048    548.78519    1837.9906    76.047607    148.93201    61.521144    286.50076     93.37898    81.551908    52.763464    227.69435 
  991700    15247.921   -14001.513   -13893.111    114532.78    825.78134    460.82789    548.41133    1835.0206    75.198133     150.6267    61.258739    287.08358    93.590581    82.270283    51.801926    227.66279 
  991800    4653.2389   -14025.906   -13992.825    34952.198    827.97439    456.72671    549.26582    1833.9669    71.635469     154.3471     61.24746    287.23002    94.010816    82.418015    51.796956    228.22579 
  991900      6304.21    -14028.47   -13983.651    47353.253    828.17019    456.18039    549.04767    1833.3983    71.823463    156.04349     61.72598    289.59294    93.867364    81.915557    52.402044    228.18497 
  992000    15000.083    -13972.56   -13865.919    112671.17     828.1266    454.63307    551.51328     1834.273    72.341781    158.00806    62.201208    292.55105    94.321167    82.678571    51.897359     228.8971 
  992100    4965.9725   -14047.622   -14012.317    37301.257    827.26516    454.23559    551.57154    1833.0723    71.915244    159.01462    61.679713    292.60957    93.747368    82.436837    52.754984    228.93919 
  992200    8165.3251   -14065.562   -14007.513    61332.777    826.09319    454.46717    551.48206    1832.0424    71.324548    162.12549    61.572202    295.02224    94.140665    82.411175    52.656061     229.2079 
  992300    5486.9105   -14078.289   -14039.281    41214.214    825.07351    454.40569    552.13587    1831.6151    70.993567    164.34986    61.417703    296.76113    93.943282    82.759896    53.202212    229.90539 
  992400    3327.0655   -14062.126   -14038.473    24990.819    824.11682     454.4492    553.09093     1831.657    71.047401    165.59574    61.365423    298.00856    93.939697    82.498367    53.508719    229.94678 
  992500    8356.6161   -14093.772   -14034.363    62769.634    820.20201    447.95246    551.86278    1820.0173    79.104138    159.25397    63.784445    302.14256    93.468611     82.46605    52.908052    228.84271 
  992600    5983.4448   -14151.463   -14108.925    44943.867     819.0325    448.72941    553.30884    1821.0707    80.169297    161.75456     63.55144     305.4753    93.798745     81.90005    53.710727    229.40952 
  992700    3622.3329   -14206.922    -14181.17    27208.682    820.44584    447.65082    555.22892    1823.3256    80.245328    161.67905    63.668592    305.59296    93.109637    82.001765     54.21175    229.32315 
  992800     3086.754   -14174.218   -14152.273    23185.751    820.07784    446.83709    555.27668    1822.1916    79.902844    161.69107    63.764545    305.35846    93.214788    81.745622    53.928938    228.88935 
  992900     5682.322   -14176.901   -14136.504    42682.023    819.15142    446.35389    556.20127    1821.7066    80.217953    161.62981    63.853868    305.70163    93.301713    81.845396    53.834768    228.98188 
  993000    4250.6804   -14175.516   -14145.296    31928.433    818.77201    445.61673     556.8905    1821.2792    80.399607    161.48974     63.88033    305.76968     93.36044    81.672872    54.442573    229.47588 
  993100    4612.7707   -14191.876   -14159.082    34648.227    818.07292    445.83394    557.61095    1821.5178    80.098955    160.20491    64.207303    304.51117    93.147541    81.708713    54.215209    229.07146 
  993200    3557.7293   -14196.755   -14171.462    26723.421    816.48602    447.21941    557.01498    1820.7204    80.268687    159.55789    64.085242    303.91182    93.064284    81.807387    54.079093    228.95076 
  993300    2649.7825   -14195.279   -14176.441    19903.496    817.16645    447.51119    557.49757    1822.1752    80.181714    158.73417    64.425674    303.34156    93.133589    81.572064    54.471842    229.17749 
  993400    3546.7739   -14198.393   -14173.177    26641.131    817.24401    447.60116    557.13784     1821.983     80.01107    158.28473    64.235314    302.53112    93.397103     81.50066    54.336773    229.23454 
  993500    4372.3626   -14197.203   -14166.119    32842.433    817.79996    447.67435    557.17438    1822.6487     80.40772    157.73297    63.800418    301.94111    93.492731    81.480372    54.337583    229.31069 
  993600    5139.9394   -14181.369   -14144.828    38607.986    817.17956    447.64452    556.59827    1821.4223    79.598261    157.55532    64.461144    301.61473    93.461338    81.767469     54.29319      229.522 
  993700      2871.69   -14187.722   -14167.306    21570.326    817.22689    445.69178    558.41128    1821.3299     79.69547    157.47685    64.715438    301.88776    93.421017    81.465392    54.590595      229.477 
  993800    2858.0027   -14211.685   -14191.366    21467.515    820.18967    445.66531    561.32624    1827.1812     79.77903    159.74741    65.154177    304.68061    93.699606    81.050021    54.840183    229.58981 
  993900    5910.3446   -14207.834   -14165.816    44394.785    819.46365    445.97229    561.15386    1826.5898    78.084301    166.92572    65.227587    310.23761    93.726336    80.807249     55.09688    229.63046 
  994000    6680.6427   -14211.441   -14163.947    50180.778    821.52775    443.57055    560.11552    1825.2138    77.744014    166.96291    65.253549    309.96047    94.718871    80.678909    55.693414    231.09119 
  994100    9218.1585   -14255.814    -14190.28    69240.998    824.56957    442.48651    559.74228    1826.7984    77.243091    164.68709    65.515503    307.44568     94.23665    81.005613    55.398367    230.64063 
  994200    5573.9355    -14392.88   -14353.253    41867.891    816.92806    447.12952    557.64243       1821.7    74.381891    148.14577    68.583438     291.1111    95.623576    80.674189    55.659691    231.95746 
  994300     6221.999   -14380.953   -14336.719    46735.736    816.20631    446.84989     555.2495    1818.3057    74.239565    148.24589    68.567499    291.05295    95.266405    81.113872    55.777796    232.15807 
  994400    10395.233   -14425.477   -14351.574    78082.441    817.44809    445.07166    557.01185    1819.5316    74.225102    147.81305    68.112715    290.15087    95.415777    80.993124     55.67881    232.08771 
  994500    4413.2532   -14410.744   -14379.369    33149.577    816.55156    443.79482    555.99269    1816.3391    74.090828    149.14277    68.637167    291.87077    95.452993    80.938571    55.585961    231.97752 
  994600    5807.9065   -14403.695   -14362.405    43625.334    816.49496    445.20349    556.92687    1818.6253    74.274877    148.82931    68.322343    291.42653    94.832053    81.110616    55.744408    231.68708 
  994700    5273.5014   -14298.102   -14260.611    39611.219    816.54731    445.15975    556.68884    1818.3959    73.583179    148.63396    68.318144    290.53529     96.00164    81.028582    55.610465    232.64069 
  994800      5029.37   -14353.675   -14317.919    37777.459    814.20697     446.1034    554.82842    1815.1388    74.062065    149.75171    68.390066    292.20384    94.218195    81.132752    55.608565    230.95951 
  994900    4323.0026   -14365.867   -14335.134    32471.671    814.29192    445.78698    554.81601    1814.8949    74.119089    149.48783    68.468735    292.07566    94.230223    80.984164    55.535868    230.75025 
  995000    4903.3769   -14386.291   -14351.431    36831.078     814.1582    445.65379    554.84937    1814.6614     73.98879    149.34229    68.303826    291.63491    94.346375    81.034449    55.696251    231.07707 
  995100    8464.5588   -14376.533   -14316.356    63580.432    814.46522    445.06773    555.43577    1814.9687    73.203284    149.30874    68.289332    290.80136    95.213784    80.859847      55.6202    231.69383 
  995200    14212.705   -14384.369   -14283.327    106756.88    817.94118    445.02035     557.2391    1820.2006    73.574978    149.28273    68.234101    291.09181    94.843067    80.912081    55.351951     231.1071 
  995300    8424.1879   -14361.297   -14301.407    63277.191    816.50856    444.69861    556.41807    1817.6252    73.328096    150.00389    68.317256    291.64924    94.418186    81.083014    55.416999     230.9182 
  995400    5487.2715   -14421.271    -14382.26    41216.926    816.27401    444.97903    555.79398     1817.047    74.026384    150.05623    67.964994    292.04761    94.989691     81.26961    55.521264    231.78056 
  995500     9017.692   -14437.274   -14373.165     67735.22     816.4961    443.48148    556.48949    1816.4671    73.750068    149.96123    67.949517    291.66082    95.148844    81.046205    55.068312    231.26336 
  995600    5010.8689   -14378.997   -14343.373     37638.49    817.40329    444.14342    554.83652    1816.3832    73.525457     150.1019    67.995923    291.62328    94.716418    81.004517     55.05292    230.77385 
  995700    4361.0362   -14383.901   -14352.897    32757.356    815.28918     442.7511    555.65777    1813.6981    73.331003    150.00161    68.109852    291.44246    94.584021    81.320059    55.025256    230.92934 
  995800    7928.1847   -14438.723   -14382.359    59551.527    817.30689    439.49427    553.47028    1810.2714     73.95361    150.19164    68.013609    292.15885     94.86097    81.150305    55.096323     231.1076 
  995900    5786.6697   -14369.878   -14328.739    43465.817    816.71109    436.79807    554.78955    1808.2987    74.158289    149.55083     68.09814    291.80726    94.571208    80.545702    55.319886     230.4368 
  996000    6673.5695   -14338.064    -14290.62    50127.649    817.68204    434.83729    551.76144    1804.2808    73.827754     149.5059    68.079427    291.41308    94.798194    80.399281     55.50078    230.69825 
  996100    3237.1169   -14396.118   -14373.105    24315.183    818.00761    434.43181    551.04345    1803.4829    73.873698    150.83655    68.004314    292.71456    94.848927    80.561483     54.72754    230.13795 
  996200    4901.8416   -14374.341   -14339.492    36819.545    818.07107    433.91904    550.63095    1802.6211    73.428714    150.68934     68.57343    292.69148    94.968472    80.578112    54.750861    230.29745 
  996300    3962.0761   -14383.146   -14354.978    29760.619    818.14285    434.10963    550.81078    1803.0633    74.618049    150.45389    69.217925    294.28986    94.477001    80.841923    54.283427    229.60235 
  996400    2660.8176   -14376.159   -14357.243    19986.385    817.89338    434.63283    550.37808    1802.9043    74.256076    150.43022    69.200644    293.88694    94.335389    80.872826    54.359536    229.56775 
  996500    4946.6648   -14384.966   -14349.798    37156.229    817.58888    434.82177    550.09909    1802.5097    74.734551    150.37647    69.086233    294.19725    94.552059    81.057766    54.334844    229.94467 
  996600    4677.9555   -14372.647    -14339.39    35137.854     817.5646    435.00673    549.36915    1801.9405    74.239727    151.22845    68.942284    294.41046    94.349179    81.267893    54.419955    230.03703 
  996700    3168.1695   -14378.905   -14356.382    23797.293    817.40549    435.34456    549.50663    1802.2567    73.596984    149.84057    68.335572    291.77312    95.245697    80.973135    54.412077    230.63091 
  996800    2797.2685   -14343.895   -14324.008    21011.319    817.13275    435.48822    549.11083    1801.7318    73.470171    151.78426    67.886287    293.14072    95.088125    80.968529    54.614847     230.6715 
  996900     5634.119   -14347.201   -14307.146    42319.952    817.10626    435.51388    549.11355    1801.7337    73.830297    150.55632    67.626657    292.01328    95.055276    81.030472     54.48578    230.57153 
  997000    5717.7319   -14369.105   -14328.456    42947.999    817.05899    435.63037    548.95207    1801.6414    73.157165     150.8238    68.064622    292.04559    95.179616    81.169001    54.517501    230.86612 
  997100    4828.6557   -14381.394   -14347.065    36269.819    816.81178     435.6287    548.74894    1801.1894    74.004136     150.2312    67.924631    292.15997    94.817544    81.143177    54.485024    230.44574 
  997200    3148.8581    -14377.29   -14354.904    23652.238     816.7611    435.74535    549.17035    1801.6768    73.812042    151.40734    67.452172    292.67155    95.007756    81.274678    54.565535    230.84797 
  997300    4396.9979   -14364.988   -14333.729    33027.477    816.54444    435.80727     548.9063     1801.258    73.500906    150.35218    66.701552    290.55464    95.170042    81.018666    54.479765    230.66847 
  997400    6675.5272    -14361.36   -14313.902    50142.354    816.93209    435.02413     546.5197    1798.4759    73.926426    151.07457     67.60274    292.60373     94.92494    81.916119    53.713876    230.55494 
  997500    9711.0235   -14458.168   -14389.129    72943.089    813.08789     435.9639     547.1766    1796.2284    73.393775    150.70969    67.141452    291.24492    95.320501    81.459925    53.722732    230.50316 
  997600    4876.1236   -14440.236    -14405.57    36626.368     813.3867    435.58366    547.93495    1796.9053    73.625752    150.30797    66.701949    290.63567    94.882023    81.069891    54.088053    230.03997 
  997700    6915.6619   -14395.837   -14346.671    51946.095    812.92817    434.50899    548.21597    1795.6531    73.302363    150.37679    66.572004    290.25115    94.804855    81.150448    54.246038    230.20134 
  997800    5582.8536   -14412.557   -14372.866    41934.878    812.43216     434.5805    548.61825    1795.6309    73.126666    150.59083    66.278446    289.99595    94.766952    81.206232    53.892286    229.86547 
  997900    6022.4569   -14369.738   -14326.923    45236.901    809.19845    438.29158    551.67528    1799.1653    72.933811    150.71037    65.985883    289.63006    95.172042    81.566389    53.748434    230.48687 
  998000    5806.4389   -14438.785   -14397.505     43614.31    810.10625    436.11235    555.06852    1801.2871    72.937929    150.74099    65.463295    289.14221    95.218131    81.473078    53.822829    230.51404 
  998100    6644.8698   -14427.768   -14380.527    49912.075    809.54859    435.98288    555.93063    1801.4621    73.341218     151.2559    65.758981     290.3561     95.12121     81.56196    53.848734     230.5319 
  998200     7102.393   -14382.749   -14332.256    53348.701    807.97259    435.51229    555.73088    1799.2158    73.311197    150.17632    65.827703    289.31522    94.516684    81.330033    54.369608    230.21632 
  998300    4938.2503   -14449.021   -14413.913    37093.024    808.29566    435.26556    556.90005    1800.4613    73.290067    150.69388    65.400835    289.38478    94.957867    81.280455    54.092868    230.33119 
  998400    6723.2657   -14296.157   -14248.359    50500.935    808.07294    436.83062    557.76644      1802.67    72.423855    150.27646    65.481335    288.18165    95.246566    81.179626     54.84764    231.27383 
  998500    5601.3608     -14337.5   -14297.678    42073.893    808.46598    436.06545    558.10011    1802.6315    72.758837    149.99856    65.026945    287.78434    94.926541    81.298863    54.910848    231.13625 
  998600    7525.4108   -14377.719   -14324.218    56526.144    807.32768    435.85026    558.68169    1801.8596    73.531971    150.80812    65.366007     289.7061    94.916848    81.359205    54.269469    230.54552 
  998700      8388.08   -14418.615   -14358.982    63005.971    807.81395    435.67673    559.78708    1803.2778     72.77461    150.35736    64.935226     288.0672    94.920083    81.179239    54.086468    230.18579 
  998800    7059.7282   -14442.761   -14392.571     53028.23    807.46514     437.4878    559.70802     1804.661    73.146744    150.57879    65.004385    288.72991    95.091967    81.419414     54.27718    230.78856 
  998900    8203.1042   -14438.658    -14380.34     61616.55     807.3413    438.18021    560.65539    1806.1769    73.166642    150.72938    65.251259    289.14728    94.796211     81.88253    54.103337    230.78208 
  999000    7957.0851    -14359.05    -14302.48    59768.609    806.71545    438.12882    560.76687    1805.6111    72.893461    150.66836    64.800405    288.36222    95.226785    81.104708     54.03058    230.36207 
  999100    7578.7238   -14343.674   -14289.794    56926.597    807.59137     438.2495    562.89525    1808.7361    70.044151     152.3167    66.843144    289.20399    94.200116    80.970131    53.905782    229.07603 
  999200    13045.685   -14345.755   -14253.009    97990.962    807.92809    439.41755    563.70138     1811.047    72.015442    153.78124    69.070879    294.86756    94.586922    82.193071    54.186024    230.96602 
  999300    4698.8296   -14412.925   -14379.519    35294.647    809.53575    437.94108    563.06983    1810.5467    71.266283     154.9574    69.244652    295.46833    94.221297    81.497151    54.160631    229.87908 
  999400    3313.8797   -14380.944   -14357.385    24891.776    809.92669    440.06693    562.94689    1812.9405    71.839904     154.5292    69.615177    295.98428    93.926788    81.468779    53.777409    229.17298 
  999500    6826.8298   -13971.938   -13923.403    51278.844    811.55199     443.6734    565.74955    1820.9749    69.377685    148.31508    69.775368    287.46813    95.051023     81.25296    54.090812    230.39479 
  999600    5569.9979   -14067.137   -14027.538    41838.314    811.53179    444.53317    556.28605     1812.351    69.659499    148.59331    68.723895     286.9767     94.61965    80.717027    53.667518    229.00419 
  999700    4517.5383   -14086.804   -14054.687    33932.901    811.95537    442.17586    556.82105    1810.9523     70.85522    146.25591    68.282939    285.39407    94.747995    80.872018    53.349647    228.96966 
  999800    11461.526   -14052.719   -13971.235    86091.758    811.98456    442.59942    557.54081    1812.1248    70.389007    146.41421    67.227788    284.03101    95.425502    80.068774    53.356159    228.85044 
  999900    6687.7239   -14097.196   -14049.651    50233.968    811.86387    445.59225    562.62829    1820.0844    70.225062    146.76003    67.448493    284.43358    95.465192    80.900198    54.028616      230.394 
 1000000    4333.1341   -14109.358   -14078.553    32547.773    813.77178    447.05688    562.77808    1823.6067    70.988468    146.93961    67.645225     285.5733    95.737353    81.002668    53.831292    230.57131 
Loop time of 10489.3 on 4 procs for 1000000 steps with 56 atoms

Performance: 8.237 ns/day, 2.914 hours/ns, 95.335 timesteps/s
99.8% CPU use with 1 MPI tasks x 4 OpenMP threads

MPI task timing breakdown:
Section |  min time  |  avg time  |  max time  |%varavg| %total
---------------------------------------------------------------
Pair    | 10464      | 10464      | 10464      |   0.0 | 99.76
Neigh   | 5.3582     | 5.3582     | 5.3582     |   0.0 |  0.05
Comm    | 1.7897     | 1.7897     | 1.7897     |   0.0 |  0.02
Output  | 13.782     | 13.782     | 13.782     |   0.0 |  0.13
Modify  | 3.6218     | 3.6218     | 3.6218     |   0.0 |  0.03
Other   |            | 1.145      |            |       |  0.01

Nlocal:        56.0000 ave          56 max          56 min
Histogram: 1 0 0 0 0 0 0 0 0 0
Nghost:        410.000 ave         410 max         410 min
Histogram: 1 0 0 0 0 0 0 0 0 0
Neighs:         0.00000 ave           0 max           0 min
Histogram: 1 0 0 0 0 0 0 0 0 0
FullNghs:      1376.00 ave        1376 max        1376 min
Histogram: 1 0 0 0 0 0 0 0 0 0

Total # of neighbors = 1376
Ave neighs/atom = 24.571429
Neighbor list builds = 52680
Dangerous builds = 2703





Total wall time: 2:54:54
