56
Lattice="8.14999996437687 0.0 0.0 0.0 10.06999995598467 0.0 0.0 0.0 12.3179999461588" Properties=species:S:1:pos:R:3:forces:R:3 energy=-13281.865434556272 stress="-0.6281385806594021 0.28450117447196344 -0.1418092720739259 0.28450117447196344 -0.43852016602943267 0.488241674287718 -0.1418092720739259 0.488241674287718 0.1103287905139465" pbc="T T T"
Li 4.1228141136 7.5992474826 5.8963981517 -0.03292606078723502 0.031531751564755475 -0.0496924813491221
Li 3.8921927788 7.6078537957 11.9495287398 0.2329301156817691 0.07163478960375042 0.041672696494321815
Li 8.0139406203 7.5565743696 3.3768451631 0.02758562249475436 0.07939977813926669 -0.10941894973797991
Li 8.1551474529 7.5644619692 9.6110398817 -0.11072198479966651 0.02183894990916699 -0.22661651485801704
Li 4.2578072212 2.4621462043 0.3684712602 -0.2329301156817691 -0.07163478960375042 -0.041672696494321815
Li 4.0271858864 2.4707525174 6.4216018483 0.03292606078723502 -0.031531751564755475 0.0496924813491221
Li -0.0051474529 2.5055380308 2.7069601183 0.11072198479966651 -0.02183894990916699 0.22661651485801704
Li 0.1360593797 2.5134256304 8.9411548369 -0.02758562249475436 -0.07939977813926669 0.10941894973797991
Li 1.4557457188 9.8557465251 5.5843146594 -0.15812181349585663 0.2372045746203128 -0.0043508207012352695
Li 1.3892029492 10.0233339242 11.5882688056 -0.03916329984829556 -0.017166227097191466 0.10449580148202595
Li 5.5232629302 5.1962330345 3.7750415213 -0.06339903208679212 -0.07559403129966827 -0.02434397567988766
Li 5.4522697588 5.1189705543 9.675657136 0.056842462018112265 0.07287868929365565 0.11770895753078978
Li 6.7791481806 4.9843352957 0.4756179871 -0.06375795808247375 -0.012325354141107218 0.10914281326279218
Li 6.7561734018 4.859729552 6.6421817047 0.051731366124018435 0.18707886239531427 0.12752491502587077
Li 2.6229845313 0.1069831381 2.5635124522 0.13191147406048692 -0.006233639516691237 -0.15786753139719678
Li 2.6117223674 0.0001207712 8.6299655277 0.05499769552884604 0.10844938675107778 0.05174627852211982
Li 6.7607970508 0.0466660758 0.7297311944 0.03916329984829556 0.017166227097191466 -0.10449580148202595
Li 6.6942542812 0.2142534749 6.7336853406 0.15812181349585663 -0.2372045746203128 0.0043508207012352695
Li 2.6977302412 4.9510294457 2.642342864 -0.056842462018112265 -0.07287868929365565 -0.11770895753078978
Li 2.6267370698 4.8737669655 8.5429584787 0.06339903208679212 0.07559403129966827 0.02434397567988766
Li 1.3938265982 5.210270448 5.6758182953 -0.051731366124018435 -0.18707886239531427 -0.12752491502587077
Li 1.3708518194 5.0856647043 11.8423820129 0.06375795808247375 0.012325354141107218 -0.10914281326279218
Li 5.5382776326 10.0698792288 3.6880344723 -0.05499769552884604 -0.10844938675107778 -0.05174627852211982
Li 5.5270154687 9.9630168619 9.7544875478 -0.13191147406048692 0.006233639516691237 0.15786753139719678
B 1.0535965829 7.5168829562 0.7598472407 -0.25183595115058083 0.6811222406189108 -0.23989549114667666
B 1.0509690098 7.4957455436 6.7537711462 -1.1896378440895896 0.47745693488017427 2.4737400737245903
B 4.9744163965 7.4637805507 2.3254072322 0.38156147333765433 2.1047806052238553 0.5717727106651957
B 4.9940747265 7.5482029401 8.4077355318 0.5588408332978616 0.41850745385446114 1.0347178253102254
B 7.0990309902 2.5742544564 5.5642288538 1.1896378440895896 -0.47745693488017427 -2.4737400737245903
B 7.0964034171 2.5531170438 11.5581527593 0.25183595115058083 -0.6811222406189108 0.23989549114667666
B 3.1559252735 2.5217970599 3.9102644682 -0.5588408332978616 -0.41850745385446114 -1.0347178253102254
B 3.1755836035 2.6062194493 9.9925927678 -0.38156147333765433 -2.1047806052238553 -0.5717727106651957
S 1.618454878 7.5655015765 5.1795239135 0.9110953306012998 -0.16678720234432207 -1.9242652548756476
S 1.6407809885 7.5592846306 11.2930963906 -0.013220355137502441 -0.21170797341131287 0.38939922409149286
S 5.7191677821 7.5344521879 4.0568283196 -0.15617831664674672 0.06954808231080481 -0.20176474631174596
S 5.7397927979 7.5680993814 10.1566414139 -0.22221478631498734 -0.1641551640794275 -0.28208060849299954
S 6.5092190115 2.5107153694 1.0249036094 0.013220355137502441 0.21170797341131287 -0.38939922409149286
S 6.531545122 2.5044984235 7.1384760865 -0.9110953306012998 0.16678720234432207 1.9242652548756476
S 2.4102072021 2.5019006186 2.1613585861 0.22221478631498734 0.1641551640794275 0.28208060849299954
S 2.4308322179 2.5355478121 8.2611716804 0.15617831664674672 -0.06954808231080481 0.20176474631174596
S 0.7079804373 9.1728584968 1.545332566 0.04798012667058369 -0.47726050260173536 -0.022085261588151942
S 0.6005931488 9.115418912 7.6738133543 0.15345603266230762 -0.4865905216069608 -0.17276861664485021
S 4.6625113652 6.0132437241 1.5366885554 -0.3287299321881906 -1.3571323569024791 -0.7606914544538466
S 4.7183047154 6.0159780793 7.6106716475 -0.2591831354289462 -0.6848997053241789 -0.44926016117357526
S 7.5114857748 4.0942826654 4.5928077462 -0.033114265535687 -0.09446027178041767 0.130610238770985
S 7.5336262998 4.080426116 10.7049126056 -0.06501574172923198 0.1679588540365292 -0.08479549514884731
S 3.434153396 0.9121033134 4.6428642553 0.22026126216370584 -0.2198529709881024 0.3627862499073858
S 3.4478762317 0.9065262615 10.8565392755 0.018583419137447276 0.7217222728911812 -0.4257667064060907
S 7.5494068512 0.954581088 4.6441866457 -0.15345603266230762 0.4865905216069608 0.17276861664485021
S 7.4420195627 0.8971415032 10.772667434 -0.04798012667058369 0.47726050260173536 0.022085261588151942
S 3.4316952846 4.0540219207 4.7073283525 0.2591831354289462 0.6848997053241789 0.44926016117357526
S 3.4874886348 4.0567562759 10.7813114446 0.3287299321881906 1.3571323569024791 0.7606914544538466
S 0.6163737002 5.989573884 1.6130873944 0.06501574172923198 -0.1679588540365292 0.08479549514884731
S 0.6385142252 5.9757173346 7.7251922538 0.033114265535687 0.09446027178041767 -0.130610238770985
S 4.7021237683 9.1634737385 1.4614607245 -0.018583419137447276 -0.7217222728911812 0.4257667064060907
S 4.715846604 9.1578966866 7.6751357447 -0.22026126216370584 0.2198529709881024 -0.3627862499073858
56
Lattice="8.14999996437687 0.0 0.0 0.0 10.06999995598467 0.0 0.0 0.0 12.3179999461588" Properties=species:S:1:pos:R:3:forces:R:3 energy=-13279.206970285915 stress="-0.7359665852550326 0.20197523916753143 0.09414723457190101 0.20197523916753143 -2.4838688371039828 0.9742767727651569 0.09414723457190101 0.9742767727651569 -1.0693066376611695" pbc="T T T"
Li 4.2961600821 7.9064286298 5.8598636296 -0.4501181382850291 0.013517060437657595 -0.33635942358923393
Li 4.0417717862 7.8615979427 11.9290987368 0.07252619105577633 -0.022756062392402198 -0.001389681236861874
Li 8.015640902 7.7083817611 3.1375563821 0.13432805388384764 0.24531023431935217 0.21703581329850102
Li 8.1294276429 7.5736397224 9.3249600003 0.15365992113979723 -0.020861159392277867 -0.11877442266410256
Li 4.1082282138 2.2084020573 0.3889012632 -0.07252619105577633 0.022756062392402198 0.001389681236861874
Li 3.8538399179 2.1635713702 6.4581363704 0.4501181382850291 -0.013517060437657595 0.33635942358923393
Li 0.0205723571 2.4963602776 2.9930399997 -0.15365992113979723 0.020861159392277867 0.11877442266410256
Li 0.134359098 2.3616182389 9.1804436179 -0.13432805388384764 -0.24531023431935217 -0.21703581329850102
Li 1.6307266985 9.8765452188 5.5007756993 -0.618594041159177 0.044593212529384536 0.18388092433350334
Li 1.1922839905 10.0507938697 11.3966628548 0.08653098975547407 -0.09581395757358656 0.14163307207102985
Li 5.4314013154 5.1644061857 3.8430199283 0.010139916488317963 -0.04928496150445493 -0.06422538462985855
Li 5.5593788932 4.9796681301 9.4111802542 0.19218738718628717 0.07116196373981167 0.33642755782193856
Li 6.5482111324 5.2420768715 0.2961015697 0.003933273554396475 -0.13922471977765605 0.3158888147610251
Li 6.609312332 4.8775220328 6.9015594156 0.5728183783044775 0.20442455249034655 -0.3194045411685828
Li 2.5845673137 0.0880154973 2.5788605157 0.6066705504358709 0.1613462339198131 -0.00552478638625124
Li 2.5101596266 -0.150561228 8.6911152092 0.016390782395919422 0.1707868103592385 -0.08598000235665909
Li 6.9577160095 0.0192061303 0.9213371452 -0.08653098975547407 0.09581395757358656 -0.14163307207102985
Li 6.5192733015 0.1934547812 6.8172243007 0.618594041159177 -0.044593212529384536 -0.18388092433350334
Li 2.5906211068 5.0903318699 2.9068197458 -0.19218738718628717 -0.07116196373981167 -0.33642755782193856
Li 2.7185986846 4.9055938143 8.4749800717 -0.010139916488317963 0.04928496150445493 0.06422538462985855
Li 1.540687668 5.1924779672 5.4164405844 -0.5728183783044775 -0.20442455249034655 0.3194045411685828
Li 1.6017888676 4.8279231285 12.0218984303 -0.003933273554396475 0.13922471977765605 -0.3158888147610251
Li 5.6398403734 10.220561228 3.6268847908 -0.016390782395919422 -0.1707868103592385 0.08598000235665909
Li 5.5654326863 9.9819845027 9.7391394843 -0.6066705504358709 -0.1613462339198131 0.00552478638625124
B 1.0194455701 7.5457132897 0.5914154793 0.3224615827793668 0.7921956952152082 0.40427382697700076
B 0.960324905 7.4173695848 6.5110753985 -0.7192231606576386 0.6253128478347875 1.603012347673429
B 4.9050680461 7.5271762188 2.3893560474 0.17520730795505093 1.7225915256143824 0.06528673599817786
B 5.0940501403 7.6248044076 8.2256801598 0.29248971947807867 0.4910719543467393 1.3512792406476852
B 7.189675095 2.6526304152 5.8069246015 0.7192231606576386 -0.6253128478347875 -1.603012347673429
B 7.1305544299 2.5242867103 11.7265845207 -0.3224615827793668 -0.7921956952152082 -0.40427382697700076
B 3.0559498597 2.4451955924 4.0923198402 -0.29248971947807867 -0.4910719543467393 -1.3512792406476852
B 3.2449319539 2.5428237812 9.9286439526 -0.17520730795505093 -1.7225915256143824 -0.06528673599817786
S 1.6977675323 7.4869629134 4.8953922873 0.02989858686234167 -0.21772332627303728 0.4364460403291795
S 1.625627918 7.4898310312 11.2044115209 0.022770460569879396 -0.541029002207005 -0.29338163515072874
S 5.7212189811 7.6518131882 4.0759700606 0.15210466086194754 0.20850026515764244 -0.4453651970556806
S 5.8802403317 7.5503207013 10.0259731849 -0.8294666631665002 -0.35067018356032215 -0.8916922437889007
S 6.524372082 2.5801689688 1.1135884791 -0.022770460569879396 0.541029002207005 0.29338163515072874
S 6.4522324677 2.5830370866 7.4226077127 -0.02989858686234167 0.21772332627303728 -0.4364460403291795
S 2.2697596683 2.5196792987 2.2920268151 0.8294666631665002 0.35067018356032215 0.8916922437889007
S 2.4287810189 2.4181868118 8.2420299394 -0.15210466086194754 -0.20850026515764244 0.4453651970556806
S 1.0902484445 9.275017469 1.2997539793 -1.3030029228975706 -0.790783388270882 0.06814040335209645
S 0.4418540452 9.0983876176 7.4751937127 0.6870393773414156 -1.0946566668168718 -0.0983200117855556
S 4.4128811152 6.0478450174 1.6936093172 0.063224197074569 -0.5789021225092186 -0.646516478162773
S 4.7103321419 6.1124855602 7.3143792429 -0.18530120169750428 0.29159343293012296 0.35638985956313973
S 7.5177129124 4.1372342901 4.5971376907 -0.343556198335025 -0.5882964190924673 1.2299578832319908
S 7.5415029793 3.9256260416 10.6842441629 0.20872317979822694 0.4083045453396804 0.6248166249324483
S 3.5019936409 0.7008787387 4.6596922996 0.3274371815389877 1.2562031896698052 0.03794716807209637
S 3.4601696148 0.8204551852 10.8300442215 -0.41728489432045957 1.1160127635599284 -0.6119762788362191
S 7.7081459548 0.9716123824 4.8428062873 -0.6870393773414156 1.0946566668168718 0.0983200117855556
S 7.0597515555 0.794982531 11.0182460207 1.3030029228975706 0.790783388270882 -0.06814040335209645
S 3.4396678581 3.9575144398 5.0036207571 0.18530120169750428 -0.29159343293012296 -0.35638985956313973
S 3.7371188848 4.0221549826 10.6243906828 -0.063224197074569 0.5789021225092186 0.646516478162773
S 0.6084970207 6.1443739584 1.6337558371 -0.20872317979822694 -0.4083045453396804 -0.6248166249324483
S 0.6322870876 5.9327657099 7.7208623093 0.343556198335025 0.5882964190924673 -1.2299578832319908
S 4.6898303852 9.2495448148 1.4879557785 0.41728489432045957 -1.1160127635599284 0.6119762788362191
S 4.6480063591 9.3691212613 7.6583077004 -0.3274371815389877 -1.2562031896698052 -0.03794716807209637
56
Lattice="8.14999996437687 0.0 0.0 0.0 10.06999995598467 0.0 0.0 0.0 12.3179999461588" Properties=species:S:1:pos:R:3:forces:R:3 energy=-13278.53337085628 stress="-0.035011002856425694 0.03839441909885338 0.39218207401357513 0.03839441909885338 0.7390557913894229 -0.6443201366014476 0.39218207401357513 -0.6443201366014476 0.4233683454655173" pbc="T T T"
Li 3.7079788954 8.0949115687 5.4480915087 0.7614926101863279 -0.017543665035343776 0.2903127664655885
Li 4.3484478377 7.814285752 11.9073907116 -0.2768828664237304 -0.07925065415825285 -0.0007911284303097106
Li 8.3714815228 8.0722924261 3.1781257881 -0.22665353874295838 -0.27686075493689044 -0.19852849881343324
Li 8.144240504 7.491461236 9.2294246492 -0.018461805959827354 -0.13450263178575872 0.33731535972959514
Li 3.8015521623 2.255714248 0.4106092884 0.2768828664237304 0.07925065415825285 0.0007911284303097106
Li 4.4420211046 1.9750884313 6.8699084913 -0.7614926101863279 0.017543665035343776 -0.2903127664655885
Li 0.005759496 2.578538764 3.0885753508 0.018461805959827354 0.13450263178575872 -0.33731535972959514
Li -0.2214815228 1.9977075739 9.1398742119 0.22665353874295838 0.27686075493689044 0.19852849881343324
Li 1.3992504249 9.9515499313 5.4995018046 0.600556724324615 -0.1279812858298356 -0.01036128846702991
Li 1.1526592629 9.8564304521 11.280275021 0.13339577189219898 0.0031776263471555784 0.033533355344398344
Li 5.1821847966 4.9060793023 3.7759159964 0.024657650260640943 0.12754034164459632 0.2197496126426411
Li 5.9322956281 4.8581655146 9.7823282654 -0.2566166602936354 0.29309264315993644 -0.19268875229486823
Li 6.3593549506 5.1857099194 0.7853772989 0.47310302885519395 -0.22977717192457445 -0.05878287354347703
Li 6.8384215813 5.1402709014 6.9640248735 -0.6917954038945092 -0.21427804809099307 -0.48686768652339696
Li 3.0277999837 0.215371222 2.4865374096 -0.6108110549018143 0.07066676927872083 0.029991660795319286
Li 2.4571624895 -0.1035352649 8.5764566809 0.07287997484521612 -0.1237104264356612 0.047571835494980244
Li 6.9973407371 0.2135695479 1.037724979 -0.13339577189219898 -0.0031776263471555784 -0.033533355344398344
Li 6.7507495751 0.1184500687 6.8184981954 -0.600556724324615 0.1279812858298356 0.01036128846702991
Li 2.2177043719 5.2118344854 2.5356717346 0.2566166602936354 -0.29309264315993644 0.19268875229486823
Li 2.9678152034 5.1639206977 8.5420840036 -0.024657650260640943 -0.12754034164459632 -0.2197496126426411
Li 1.3115784187 4.9297290986 5.3539751265 0.6917954038945092 0.21427804809099307 0.48686768652339696
Li 1.7906450494 4.8842900806 11.5326227011 -0.47310302885519395 0.22977717192457445 0.05878287354347703
Li 5.6928375105 10.1735352649 3.7415433191 -0.07287997484521612 0.1237104264356612 -0.047571835494980244
Li 5.1222000163 9.854628778 9.8314625904 0.6108110549018143 -0.07066676927872083 -0.029991660795319286
B 1.1627943399 7.5544549803 0.4827262093 -0.4319106144238615 1.0689646617706814 0.035410003512364084
B 0.9710137081 7.4501838119 6.5547087368 0.5601299844026951 -0.37141307220903735 -0.9858537533866664
B 4.877522802 7.6177305193 2.4769361788 0.6775610056861125 1.1339557209099524 -0.35720309948028944
B 4.9455900601 7.6390657496 8.271549795 0.3565464397432043 0.9295383675083444 0.3823356324873659
B 7.1789862919 2.6198161881 5.7632912632 -0.5601299844026951 0.37141307220903735 0.9858537533866664
B 6.9872056601 2.5155450197 11.8352737907 0.4319106144238615 -1.0689646617706814 -0.035410003512364084
B 3.2044099399 2.4309342504 4.046450205 -0.3565464397432043 -0.9295383675083444 -0.3823356324873659
B 3.272477198 2.4522694807 9.8410638212 -0.6775610056861125 -1.1339557209099524 0.35720309948028944
S 1.6615995068 7.349711751 4.9451000085 -0.7107398059101347 0.40844621312164353 0.29596250846351685
S 1.6260878231 7.2814448902 11.0362977701 0.489553460843519 0.333369230659594 -0.00621409913297218
S 5.8455856488 7.8739600151 4.0440628294 -0.055968029846684475 -0.9801027099257734 0.16781255826894836
S 5.8570758063 7.4320708861 9.8847555398 -0.2893668576273989 0.01425008193743432 0.5603140753861536
S 6.5239121769 2.7885551098 1.2817022299 -0.489553460843519 -0.333369230659594 0.00621409913297218
S 6.4884004932 2.720288249 7.3728999915 0.7107398059101347 -0.40844621312164353 -0.29596250846351685
S 2.2929241937 2.6379291139 2.4332444602 0.2893668576273989 -0.01425008193743432 -0.5603140753861536
S 2.3044143512 2.1960399849 8.2739371706 0.055968029846684475 0.9801027099257734 -0.16781255826894836
S 1.0729857856 9.3185671153 1.2447763165 0.059407137381238484 -0.7485144529628169 0.1607281407295419
S 0.4648696674 8.9908065458 7.4209967489 0.39426452252722594 0.7714327519621497 0.6716382125367416
S 4.2923956257 6.1496858433 1.7183266031 0.3138663850461027 -0.023092619790931742 0.08098486321331913
S 4.6809250581 6.3791693418 7.190217851 -0.2962995800826706 -1.9961679534245986 -0.6430344332060995
S 7.4363916893 4.126442726 4.8278731471 -0.6616088534826235 0.8201862664515086 -0.7873602215756778
S 7.6651093421 3.8458407497 10.8663537755 0.48493138876302566 0.6208185595794045 -0.2047647094332454
S 3.6491107995 0.8073886849 4.7159619562 -0.18048141178701163 -0.5371250392281871 -0.10223040252217581
S 3.3295776183 0.7912633659 10.817686029 -0.36202134672890957 0.6046396360806495 0.3312632400932415
S 7.6851303326 1.0791934542 4.8970032511 -0.39426452252722594 -0.7714327519621497 -0.6716382125367416
S 7.0770142144 0.7514328847 11.0732236835 -0.059407137381238484 0.7485144529628169 -0.1607281407295419
S 3.4690749419 3.6908306582 5.127782149 0.2962995800826706 1.9961679534245986 0.6430344332060995
S 3.8576043743 3.9203141567 10.5996733969 -0.3138663850461027 0.023092619790931742 -0.08098486321331913
S 0.4848906579 6.2241592503 1.4516462245 -0.48493138876302566 -0.6208185595794045 0.2047647094332454
S 0.7136083107 5.943557274 7.4901268529 0.6616088534826235 -0.8201862664515086 0.7873602215756778
S 4.8204223817 9.2787366341 1.500313971 0.36202134672890957 -0.6046396360806495 -0.3312632400932415
S 4.5008892005 9.2626113151 7.6020380438 0.18048141178701163 0.5371250392281871 0.10223040252217581
56
Lattice="8.14999996437687 0.0 0.0 0.0 10.06999995598467 0.0 0.0 0.0 12.3179999461588" Properties=species:S:1:pos:R:3:forces:R:3 energy=-13278.164951445864 stress="-0.07443515733340923 1.2122927501672442 -0.14210348218196311 1.2122927501672442 -1.4036764254454368 -0.44719936421652984 -0.14210348218196311 -0.44719936421652984 -2.44532731295111" pbc="T T T"
Li 4.1265915946 8.0005262961 5.4485562908 -0.3096312639853092 -0.05938605433564688 0.08848477101706767
Li 4.090544677 7.4705804864 11.977391016 -0.06806764113377417 0.11324886494691506 0.128334041178027
Li 8.2101346529 7.8753446844 3.0550910983 -0.12614448976024423 -0.12241870422770669 -0.012067472498078085
Li 8.1433212822 7.2495282148 9.3594381956 0.057576511959137364 0.11723587455653893 -0.32975271700969594
Li 4.059455323 2.5994195136 0.340608984 0.06806764113377417 -0.11324886494691506 -0.128334041178027
Li 4.0234084054 2.0694737039 6.8694437092 0.3096312639853092 0.05938605433564688 -0.08848477101706767
Li 0.0066787178 2.8204717852 2.9585618044 -0.057576511959137364 -0.11723587455653893 0.32975271700969594
Li -0.0601346529 2.1946553156 9.2629089017 0.12614448976024423 0.12241870422770669 0.012067472498078085
Li 1.644996466 9.8826946638 5.4927991916 -0.3894539885879687 -0.0690955681615214 -0.01563667785055108
Li 1.1847639589 9.6187486465 11.2475145523 -0.36387485496878696 0.24453376117683168 0.16991057841562607
Li 5.0358348357 5.0689639341 3.9345755442 0.24404730846635206 0.44910100989038976 -0.35132864306959194
Li 5.8909413483 4.9368408984 9.9185735498 -0.10348510084518894 -0.3974879145099341 0.029045751957129676
Li 6.6363283205 5.0608297632 1.0843933097 -0.8013930452993936 -0.11555051646077029 -0.23090100109873232
Li 6.4859148118 5.2963101402 6.6755615775 1.0529688008141365 -0.5408281990532605 0.2526371068830622
Li 2.8284992034 0.2802494202 2.3295107966 0.22583129996488543 -0.1946296780408572 -0.08784250945745972
Li 2.4331471214 -0.1173683796 8.6108941173 0.159942154505474 0.17764291394150653 0.35134741212237475
Li 6.9652360411 0.4512513535 1.0704854477 0.36387485496878696 -0.24453376117683168 -0.16991057841562607
Li 6.505003534 0.1873053362 6.8252008084 0.3894539885879687 0.0690955681615214 0.01563667785055108
Li 2.2590586517 5.1331591016 2.3994264502 0.10348510084518894 0.3974879145099341 -0.029045751957129676
Li 3.1141651643 5.0010360659 8.3834244558 -0.24404730846635206 -0.44910100989038976 0.35132864306959194
Li 1.6640851882 4.7736898598 5.6424384225 -1.0529688008141365 0.5408281990532605 -0.2526371068830622
Li 1.5136716795 5.0091702368 11.2336066903 0.8013930452993936 0.11555051646077029 0.23090100109873232
Li 5.7168528786 10.1873683796 3.7071058827 -0.159942154505474 -0.17764291394150653 -0.35134741212237475
Li 5.3215007966 9.7897505798 9.9884892034 -0.22583129996488543 0.1946296780408572 0.08784250945745972
B 0.9178337574 7.5844173313 0.333214947 1.148286278375072 0.9332803509905438 -0.137535505027206
B 1.0295331957 7.3485641271 6.6434036807 0.1971866400946206 0.24681741496884044 -0.7410554256986911
B 5.2157592216 7.8148421348 2.3937654536 -0.994207010316251 -0.7597470882775295 -0.42303439511948
B 4.9797308158 7.5907997363 8.1190774925 -0.03720000550515453 1.7325794899082532 1.502769664974043
B 7.1204668043 2.7214358729 5.6745963193 -0.1971866400946206 -0.24681741496884044 0.7410554256986911
B 7.2321662426 2.4855826687 11.984785053 -1.148286278375072 -0.9332803509905438 0.137535505027206
B 3.1702691842 2.4792002637 4.1989225075 0.03720000550515453 -1.7325794899082532 -1.502769664974043
B 2.9342407784 2.2551578652 9.9242345464 0.994207010316251 0.7597470882775295 0.42303439511948
S 1.5436713707 7.3782297711 4.8617915533 0.15416694267524433 0.14110599593123946 1.565620023654829
S 1.7855087702 7.3590770933 11.0077990889 -0.42760761624067556 0.4725931791063138 0.7473973086567735
S 6.0216906968 7.8025306435 4.0703793636 0.024713700308677183 0.030128700591664778 -0.3577255476344621
S 5.6978109425 7.3581833764 9.9353131766 -0.29986955676607985 0.13768617167009245 -1.108341620288326
S 6.3644912298 2.7109229067 1.3102009111 0.42760761624067556 -0.4725931791063138 -0.7473973086567735
S 6.6063286293 2.6917702289 7.4562084467 -0.15416694267524433 -0.14110599593123946 -1.565620023654829
S 2.4521890575 2.7118166236 2.3826868234 0.29986955676607985 -0.13768617167009245 1.108341620288326
S 2.1283093032 2.2674693565 8.2476206364 -0.024713700308677183 -0.030128700591664778 0.3577255476344621
S 1.0212374539 9.2258952896 1.2486156318 -0.32972777730942293 -0.47840207238742766 -0.41298241035789784
S 0.6308616051 9.0287907012 7.5781762069 -0.387414332482136 -1.220695741349158 -0.357052432837403
S 4.3902082407 6.314959037 1.7721188013 0.7479405827462257 0.07765065668609901 0.34903624752697204
S 4.5945172217 6.2456305611 7.0683067864 -0.5416260123516845 -0.29056190635800644 -0.3268635684327086
S 7.2153651766 4.3446185877 4.7009553186 0.4951399537046725 -0.9251590075624669 -0.3965589749523426
S 7.8525124508 3.8326677548 11.0651755215 -0.36076561996464807 0.5589331358999029 -0.7909605372759141
S 3.7141237033 0.7095865062 4.7158464075 -0.9362332629249301 1.4074478165378022 -0.48564075611408986
S 3.1239276946 0.7444661913 11.0133775045 0.12043072729460473 0.3293727079684227 -0.5104688705116484
S 7.5191383949 1.0412092988 4.7398237931 0.387414332482136 1.220695741349158 0.357052432837403
S 7.1287625461 0.8441047104 11.0693843682 0.32972777730942293 0.47840207238742766 0.41298241035789784
S 3.5554827783 3.8243694389 5.2496932136 0.5416260123516845 0.29056190635800644 0.3268635684327086
S 3.7597917593 3.755040963 10.5458811987 -0.7479405827462257 -0.07765065668609901 -0.34903624752697204
S 0.2974875492 6.2373322452 1.2528244785 0.36076561996464807 -0.5589331358999029 0.7909605372759141
S 0.9346348234 5.7253814123 7.6170446814 -0.4951399537046725 0.9251590075624669 0.3965589749523426
S 5.0260723054 9.3255338087 1.3046224955 -0.12043072729460473 -0.3293727079684227 0.5104688705116484
S 4.4358762967 9.3604134938 7.6021535925 0.9362332629249301 -1.4074478165378022 0.48564075611408986
56
Lattice="8.14999996437687 0.0 0.0 0.0 10.06999995598467 0.0 0.0 0.0 12.3179999461588" Properties=species:S:1:pos:R:3:forces:R:3 energy=-13276.714741173402 stress="0.3156874459239057 -0.03971836458502074 0.5329616107093709 -0.03971836458502074 2.3561816502158415 0.8121670032366649 0.5329616107093709 0.8121670032366649 0.5632652518372016" pbc="T T T"
Li 4.2427459593 7.9198774019 5.6973363439 -0.45693696087204366 0.6190588966034409 -0.07867446994885274
Li 3.9725662426 7.4521646219 12.1447472529 0.5081150256044383 0.21688463243499043 -0.19092137600954195
Li 8.1593776395 7.4922622076 2.9528822129 0.5513046729401079 0.44629233684108743 0.4150066398450048
Li 8.051473468 7.3077046804 9.1764004275 -0.4813220742018662 0.002253828995805955 0.8409661789851652
Li 4.1774337574 2.6178353781 0.1732527471 -0.5081150256044383 -0.21688463243499043 0.19092137600954195
Li 3.9072540407 2.1501225981 6.6206636561 0.45693696087204366 -0.6190588966034409 0.07867446994885274
Li 0.098526532 2.7622953196 3.1415995725 0.4813220742018662 -0.002253828995805955 -0.8409661789851652
Li -0.0093776395 2.5777377924 9.3651177871 -0.5513046729401079 -0.44629233684108743 -0.4150066398450048
Li 1.257512512 9.8379336634 5.4546442911 0.2926689253656074 0.03623841293792726 -0.1745866436616588
Li 0.8705247202 9.863230272 11.319950614 0.9151633299592329 -0.6030365532847506 0.16719189397555623
Li 5.1424358536 5.684879828 4.0875392307 -0.20257952889076822 -0.7159493750537602 0.2596361637988538
Li 5.7582623913 4.6401301297 9.9594836799 0.028505820301734684 0.3386875574652347 -0.16515455186253244
Li 6.2267748118 4.918087461 0.9459506164 0.5050291876386999 -0.22959128116893135 -0.08741364945688884
Li 7.0572526888 4.971700599 6.9235210594 -0.5661584498903364 -0.11793290061262265 0.016415464985880333
Li 2.9566733984 0.1930710048 2.006842806 -0.025911834363029882 0.29509141872614625 0.26324316436720446
Li 2.5590584815 -0.0890384677 8.9276884703 0.07165818664215087 -0.4656869390131877 -0.5804388708445976
Li 7.2794752798 0.206769728 0.998049386 -0.9151633299592329 0.6030365532847506 -0.16719189397555623
Li 6.892487488 0.2320663366 6.8633557089 -0.2926689253656074 -0.03623841293792726 0.1745866436616588
Li 2.3917376087 5.4298698703 2.3585163201 -0.028505820301734684 -0.3386875574652347 0.16515455186253244
Li 3.0075641464 4.385120172 8.2304607693 0.20257952889076822 0.7159493750537602 -0.2596361637988538
Li 1.0927473112 5.098299401 5.3944789406 0.5661584498903364 0.11793290061262265 -0.016415464985880333
Li 1.9232251882 5.151912539 11.3720493836 -0.5050291876386999 0.22959128116893135 0.08741364945688884
Li 5.5909415185 10.1590384677 3.3903115297 -0.07165818664215087 0.4656869390131877 0.5804388708445976
Li 5.1933266016 9.8769289952 10.311157194 0.025911834363029882 -0.29509141872614625 -0.26324316436720446
B 1.1029062295 7.4851490563 0.4433850339 0.13150009756113837 1.8867592880991024 -0.8430012071053802
B 1.1227644664 7.2999808206 6.9225209213 0.6996012729696482 -1.2891161378311236 -2.9561448394506797
B 5.2688416597 7.86193418 2.3807046605 -1.1131308140716798 -1.7322948687927666 -1.7759221178796183
B 4.7443184985 7.4722276542 8.2166769759 0.6247148092488596 2.221350564072074 0.570034387845136
B 7.0272355336 2.7700191794 5.3954790787 -0.6996012729696482 1.2891161378311236 2.9561448394506797
B 7.0470937705 2.5848509437 11.8746149661 -0.13150009756113837 -1.8867592880991024 0.8430012071053802
B 3.4056815015 2.5977723458 4.1013230241 -0.6247148092488596 -2.221350564072074 -0.570034387845136
B 2.8811583403 2.20806582 9.9372953395 1.1131308140716798 1.7322948687927666 1.7759221178796183
S 1.5217355423 7.4434315084 5.0265803289 -0.002591414835583872 -0.3984327949068753 1.2722329891875463
S 1.8890757587 7.5844345607 11.0874491184 -0.5622853401489696 -0.7858522695952532 0.26761223990059835
S 6.1025899373 7.7630818362 3.9532484199 0.2536213251577536 1.042093034612609 1.4621367225818247
S 5.5089649585 7.3164839828 9.8830955566 0.48012111193408047 -0.550571137219707 1.128056839019606
S 6.2609242413 2.4855654393 1.2305508816 0.5622853401489696 0.7858522695952532 -0.26761223990059835
S 6.6282644577 2.6265684916 7.2914196711 0.002591414835583872 0.3984327949068753 -1.2722329891875463
S 2.6410350415 2.7535160172 2.4349044434 -0.48012111193408047 0.550571137219707 -1.128056839019606
S 2.0474100627 2.3069181638 8.3647515801 -0.2536213251577536 -1.042093034612609 -1.4621367225818247
S 0.907155264 9.1660819125 1.3021837666 0.9716658921447585 -0.7263332892282544 0.6207478542435789
S 0.6679393973 8.810567919 7.6705424995 -0.5319851469791389 2.6494433474716685 0.9419807068414539
S 4.562494229 6.2348346834 1.8006450636 -0.24262497421985435 0.5251539830971438 0.024694674145582313
S 4.5167064937 6.1893063798 7.1539589015 0.11435983860546829 -1.8336071303904589 -0.6280261329583033
S 7.17382544 4.3053216739 4.5027159534 0.07906656317479437 0.7436535254023895 0.28283008505275015
S 7.8423397695 3.9688659209 11.1114001545 -0.17383331044722672 1.5935663719174498 -0.4372831915053539
S 3.5280242779 0.7726597289 4.6033109901 0.04644106434239587 0.3979684536832356 -0.13805692474013032
S 2.9852192108 0.7932979898 11.0903603718 0.2656602584111894 0.02243544583322241 -0.19364957353115922
S 7.4820606027 1.259432081 4.6474575005 0.5319851469791389 -2.6494433474716685 -0.9419807068414539
S 7.242844736 0.9039180875 11.0158162334 -0.9716658921447585 0.7263332892282544 -0.6207478542435789
S 3.6332935063 3.8806936202 5.1640410985 -0.11435983860546829 1.8336071303904589 0.6280261329583033
S 3.587505771 3.8351653166 10.5173549364 0.24262497421985435 -0.5251539830971438 -0.024694674145582313
S 0.3076602305 6.1011340791 1.2065998455 0.17383331044722672 -1.5935663719174498 0.4372831915053539